# t (s)	mx ()	my ()	mz ()	B_extx (T)	B_exty (T)	B_extz (T)	mx ()	my ()	mz ()	E_anis (J)	E_demag (J)	E_exch (J)	E_total (J)	m_zrange1_x ()	m_zrange1_y ()	m_zrange1_z ()	m_zrange0_x ()	m_zrange0_y ()	m_zrange0_z ()
0	0	0	1	0	0	1	0	0	1	-1.7814926e-13	2.221299e-15	-0	-1.8300585e-13	0	0	1	0	0	1
0	0.00017247073	-0.00016265447	0.9999713	0	0	0.94999886	0.00017247073	-0.00016265447	0.9999713	-1.7814976e-13	2.221182e-15	1.1683219e-19	-1.8265226e-13	0.00034491855	-0.0003252873	0.99994254	2.292239e-08	-2.1617751e-08	1
0	0.00018146093	-0.00017113694	0.9999691	0	0	0.900001	0.00018146093	-0.00017113696	0.9999691	-1.7814977e-13	2.2211722e-15	1.2257395e-19	-1.8229839e-13	0.00036289773	-0.00034225112	0.99993813	2.4129266e-08	-2.2756462e-08	1
0	0.00019143723	-0.00018054992	0.9999667	0	0	0.849999	0.00019143723	-0.00018054992	0.9999666	-1.7814977e-13	2.221162e-15	1.2885127e-19	-1.8194449e-13	0.00038284896	-0.00036107583	0.9999333	2.5468532e-08	-2.4020107e-08	1
0	0.00020257507	-0.00019105898	0.9999639	0	0	0.8000007	0.00020257509	-0.00019105898	0.9999639	-1.7814979e-13	2.2211504e-15	1.3574243e-19	-1.8159061e-13	0.00040512322	-0.00038209252	0.99992776	2.6963749e-08	-2.54309e-08	1
0	0.00021508802	-0.00020286537	0.99996066	0	0	0.75	0.00021508802	-0.00020286538	0.9999608	-1.7814981e-13	2.221137e-15	1.4334196e-19	-1.8123674e-13	0.00043014743	-0.00040570373	0.9999214	2.8643584e-08	-2.7015876e-08	1
0	0.00022924734	-0.00021622503	0.9999571	0	0	0.69999945	0.00022924734	-0.00021622503	0.9999571	-1.7814981e-13	2.2211216e-15	1.5176505e-19	-1.8088288e-13	0.00045846408	-0.00043242128	0.9999142	3.054445e-08	-2.8809389e-08	1
0	0.00024540088	-0.00023146602	0.9999529	0	0	0.6500008	0.00024540088	-0.00023146602	0.9999529	-1.7814987e-13	2.2211033e-15	1.6115418e-19	-1.8052901e-13	0.00049076905	-0.0004629012	0.99990577	3.2713054e-08	-3.0855485e-08	1
0	0.00026400195	-0.00024901572	0.9999479	0	0	0.59999925	0.00026400198	-0.00024901572	0.9999479	-1.7814987e-13	2.2210824e-15	1.7168736e-19	-1.8017512e-13	0.00052796875	-0.00049799826	0.99989593	3.5210263e-08	-3.3211546e-08	1
0	0.00028565258	-0.00026944137	0.99994206	0	0	0.5499998	0.00028565258	-0.00026944137	0.99994206	-1.7814987e-13	2.2210572e-15	1.8359064e-19	-1.7982123e-13	0.00057126704	-0.0005388468	0.9998842	3.8116895e-08	-3.5953715e-08	1
0	0.0003111692	-0.00029351228	0.9999351	0	0	0.5	0.0003111692	-0.00029351228	0.9999351	-1.7814988e-13	2.2210271e-15	1.9715575e-19	-1.7946736e-13	0.0006222968	-0.0005869853	0.99987	4.154257e-08	-3.9185302e-08	1
0	0.00034168788	-0.0003222977	0.99992645	0	0	0.4500005	0.00034168788	-0.0003222977	0.9999265	-1.7814988e-13	2.22099e-15	2.1276694e-19	-1.7911349e-13	0.0006833301	-0.00064455235	0.99985284	4.5639805e-08	-4.3049848e-08	1
0	0.0003788371	-0.00035733043	0.99991584	0	0	0.40000036	0.00037883708	-0.00035733043	0.99991584	-1.7814988e-13	2.2209445e-15	2.3094198e-19	-1.7875962e-13	0.0007576235	-0.0007146131	0.99983156	5.0627232e-08	-4.7753144e-08	1
0	0.000425044	-0.00040089182	0.9999023	0	0	0.34999973	0.00042504404	-0.00040089182	0.9999023	-1.7814988e-13	2.2208867e-15	2.5239889e-19	-1.7840575e-13	0.00085003127	-0.00080172997	0.9998046	5.683074e-08	-5.3601493e-08	1
0	0.00048407877	-0.0004565224	0.9998847	0	0	0.29999962	0.00048407877	-0.0004565224	0.9998847	-1.7814988e-13	2.220811e-15	2.7816717e-19	-1.7805191e-13	0.0009680927	-0.00091298367	0.99976945	6.475647e-08	-6.107024e-08	1
0	0.0005621521	-0.00053004455	0.9998609	0	0	0.25	0.0005621521	-0.00053004455	0.9998609	-1.7814984e-13	2.2207082e-15	3.0978834e-19	-1.7769805e-13	0.001124229	-0.0010600181	0.9997219	7.52383e-08	-7.0941084e-08	1
0	0.0006833619	-0.0006440572	0.9998233	0	0	0.19499981	0.0006833619	-0.0006440572	0.9998233	-1.7814977e-13	2.2205458e-15	3.542838e-19	-1.7730882e-13	0.0013666322	-0.0012880282	0.99964666	9.1511474e-08	-8.6248164e-08	1
0	0.0006970179	-0.0006568915	0.999819	0	0	0.19000006	0.0006970179	-0.0006568915	0.999819	-1.7814976e-13	2.220527e-15	3.5899494e-19	-1.7727342e-13	0.0013939426	-0.0013136951	0.9996381	9.3344894e-08	-8.7971266e-08	1
0	0.0007112473	-0.0006702614	0.9998145	0	0	0.18499996	0.0007112473	-0.0006702614	0.9998145	-1.7814976e-13	2.2205079e-15	3.6383942e-19	-1.7723805e-13	0.0014223993	-0.0013404328	0.9996291	9.525529e-08	-8.9766274e-08	1
0	0.00072605745	-0.0006841754	0.99980986	0	0	0.18000017	0.00072605745	-0.0006841754	0.9998099	-1.7814976e-13	2.2204876e-15	3.688233e-19	-1.7720268e-13	0.0014520176	-0.0013682591	0.9996197	9.7243635e-08	-9.163436e-08	1
0	0.00074149703	-0.0006986772	0.99980503	0	0	0.17499986	0.00074149715	-0.00069867715	0.99980503	-1.7814974e-13	2.2204664e-15	3.7395256e-19	-1.771673e-13	0.0014828949	-0.0013972608	0.99960995	9.931651e-08	-9.358132e-08	1
0	0.0007576137	-0.00071381254	0.9997999	0	0	0.17000006	0.00075761374	-0.00071381254	0.9997999	-1.7814974e-13	2.2204444e-15	3.7923483e-19	-1.7713192e-13	0.0015151259	-0.0014275294	0.99959975	1.0148029e-07	-9.561337e-08	1
0	0.0007744381	-0.00072960823	0.9997946	0	0	0.1650002	0.0007744381	-0.00072960823	0.9997946	-1.7814973e-13	2.220421e-15	3.8467688e-19	-1.7709652e-13	0.0015487724	-0.0014591187	0.99958915	1.03739076e-07	-9.773409e-08	1
0	0.000792034	-0.0007461247	0.99978894	0	0	0.15999989	0.00079203397	-0.0007461247	0.99978894	-1.781497e-13	2.2203971e-15	3.9028757e-19	-1.7706114e-13	0.0015839618	-0.0014921494	0.99957794	1.0610144e-07	-9.9951556e-08	1
0	0.0008104326	-0.0007633895	0.99978316	0	0	0.15500008	0.0008104326	-0.0007633895	0.9997832	-1.7814968e-13	2.2203717e-15	3.9607458e-19	-1.7702574e-13	0.0016207567	-0.0015266768	0.99956626	1.085716e-07	-1.022695e-07	1
0	0.00082969415	-0.0007814608	0.999777	0	0	0.14999981	0.00082969415	-0.0007814608	0.999777	-1.7814968e-13	2.220345e-15	4.0204824e-19	-1.7699038e-13	0.0016592771	-0.0015628168	0.99955404	1.1115759e-07	-1.04695715e-07	1
0	0.00084995653	-0.00080046407	0.9997704	0	0	0.14500023	0.00084995653	-0.00080046407	0.9997704	-1.7814966e-13	2.2203169e-15	4.0821852e-19	-1.76955e-13	0.0016997993	-0.0016008208	0.999541	1.13877945e-07	-1.0724709e-07	1
0	0.000871205	-0.00082038646	0.9997637	0	0	0.14000009	0.00087120506	-0.00082038646	0.9997637	-1.7814965e-13	2.2202874e-15	4.1459556e-19	-1.7691962e-13	0.0017422931	-0.001640663	0.99952745	1.167307e-07	-1.09921835e-07	1
0	0.0008935187	-0.000841301	0.9997566	0	0	0.13500017	0.00089351874	-0.000841301	0.9997566	-1.7814964e-13	2.2202563e-15	4.211905e-19	-1.7688424e-13	0.0017869179	-0.0016824893	0.99951315	1.1972648e-07	-1.1272979e-07	1
0	0.0009170166	-0.00086331833	0.99974906	0	0	0.13000007	0.0009170165	-0.0008633184	0.99974906	-1.7814964e-13	2.2202233e-15	4.2801727e-19	-1.7684886e-13	0.0018339101	-0.0017265211	0.99949807	1.2288122e-07	-1.1568582e-07	1
0	0.00094178604	-0.0008865193	0.9997411	0	0	0.125	0.00094178604	-0.0008865193	0.9997411	-1.781496e-13	2.2201888e-15	4.350888e-19	-1.768135e-13	0.0018834459	-0.00177292	0.9994821	1.2620669e-07	-1.18800756e-07	1
0	0.00096793217	-0.000911001	0.99973273	0	0	0.11999989	0.00096793217	-0.00091100106	0.99973273	-1.7814958e-13	2.2201523e-15	4.424203e-19	-1.7677811e-13	0.0019357346	-0.00182188	0.99946535	1.29717e-07	-1.2208763e-07	1
0	0.00099556	-0.0009368584	0.9997238	0	0	0.11499984	0.00099556	-0.0009368584	0.9997238	-1.7814954e-13	2.220114e-15	4.500268e-19	-1.7674271e-13	0.0019909863	-0.0018735914	0.9994475	1.3342621e-07	-1.2555923e-07	1
0	0.0010248218	-0.0009642346	0.99971426	0	0	0.10999988	0.0010248218	-0.0009642346	0.99971426	-1.7814951e-13	2.2200725e-15	4.579271e-19	-1.7670734e-13	0.0020495062	-0.00192834	0.9994285	1.3735482e-07	-1.292347e-07	1
0	0.00105589	-0.000993286	0.9997043	0	0	0.10499983	0.00105589	-0.000993286	0.99970424	-1.7814949e-13	2.220029e-15	4.6614037e-19	-1.7667196e-13	0.0021116384	-0.0019864389	0.9994085	1.4152596e-07	-1.3313513e-07	1
0	0.0010888391	-0.0010240844	0.99969363	0	0	0.10000009	0.0010888391	-0.0010240844	0.99969363	-1.7814945e-13	2.2199827e-15	4.746868e-19	-1.7663656e-13	0.0021775323	-0.0020480314	0.9993871	1.4594963e-07	-1.3727006e-07	1
0	0.00112389	-0.0010568296	0.9996822	0	0	0.09500003	0.00112389	-0.0010568296	0.99968225	-1.7814942e-13	2.2199332e-15	4.8359047e-19	-1.7660119e-13	0.0022476295	-0.0021135174	0.99936444	1.5065544e-07	-1.416664e-07	1
0	0.0011613835	-0.0010918353	0.99967	0	0	0.090000086	0.0011613835	-0.0010918353	0.99967	-1.781494e-13	2.2198804e-15	4.928763e-19	-1.7656583e-13	0.0023226114	-0.0021835242	0.9993402	1.5568922e-07	-1.4636625e-07	1
0	0.0012014045	-0.0011291811	0.99965703	0	0	0.08500003	0.0012014045	-0.0011291811	0.99965703	-1.7814934e-13	2.2198237e-15	5.0257323e-19	-1.7653042e-13	0.0024026479	-0.002258211	0.99931407	1.6106233e-07	-1.5138028e-07	1
0	0.0012442869	-0.0011691707	0.99964315	0	0	0.079999946	0.0012442869	-0.0011691708	0.99964315	-1.7814931e-13	2.2197633e-15	5.1271213e-19	-1.7649506e-13	0.0024884068	-0.0023381847	0.9992862	1.6681958e-07	-1.5674924e-07	1
0	0.0012903399	-0.0012120893	0.99962807	0	0	0.074999906	0.0012903399	-0.0012120893	0.99962807	-1.7814928e-13	2.2196977e-15	5.233282e-19	-1.7645968e-13	0.0025805067	-0.002424016	0.99925613	1.7300252e-07	-1.6251144e-07	1
0	0.0013397904	-0.0012581407	0.9996119	0	0	0.070000045	0.0013397904	-0.0012581407	0.9996119	-1.7814919e-13	2.2196272e-15	5.344598e-19	-1.7642429e-13	0.002679401	-0.0025161128	0.9992238	1.796416e-07	-1.6869427e-07	1
0	0.0013935373	-0.0013081545	0.99959445	0	0	0.065000035	0.0013935373	-0.0013081545	0.99959445	-1.7814916e-13	2.219551e-15	5.461526e-19	-1.7638895e-13	0.0027868876	-0.002616134	0.99918884	1.8685752e-07	-1.7540907e-07	1
0	0.0014516935	-0.0013622219	0.9995755	0	0	0.059999947	0.0014516937	-0.0013622219	0.99957544	-1.7814908e-13	2.2194684e-15	5.5845693e-19	-1.7635355e-13	0.0029031925	-0.002724261	0.999151	1.946654e-07	-1.8266813e-07	1
0	0.0015147137	-0.0014207659	0.99955475	0	0	0.05499994	0.0015147139	-0.001420766	0.9995548	-1.78149e-13	2.2193784e-15	5.714216e-19	-1.7631819e-13	0.0030292247	-0.0028413415	0.99910975	2.0312632e-07	-1.905282e-07	1
0	0.0015834965	-0.0014845887	0.9995323	0	0	0.050000045	0.0015834965	-0.0014845886	0.9995323	-1.7814896e-13	2.2192801e-15	5.8511954e-19	-1.7628282e-13	0.0031667803	-0.0029689784	0.9990647	2.1236086e-07	-1.9909699e-07	1
0	0.0016591201	-0.0015546926	0.99950755	0	0	0.045000043	0.0016591201	-0.0015546926	0.99950767	-1.7814885e-13	2.2191727e-15	5.996194e-19	-1.7624743e-13	0.0033180173	-0.003109177	0.99901533	2.2251388e-07	-2.085091e-07	1
0	0.0017421206	-0.0016315448	0.9994806	0	0	0.039999973	0.0017421206	-0.0016315449	0.9994805	-1.7814874e-13	2.2190542e-15	6.1500444e-19	-1.7621205e-13	0.0034840077	-0.003262871	0.9989611	2.336573e-07	-2.1882721e-07	1
0	0.0018336863	-0.0017162237	0.9994505	0	0	0.035000023	0.0018336863	-0.0017162237	0.9994505	-1.7814865e-13	2.2189229e-15	6.313711e-19	-1.7617667e-13	0.0036671266	-0.0034322173	0.998901	2.4595062e-07	-2.3019612e-07	1
0	0.0019359058	-0.001810619	0.9994171	0	0	0.029999973	0.0019359058	-0.001810619	0.9994171	-1.7814851e-13	2.2187772e-15	6.4884094e-19	-1.761413e-13	0.003871552	-0.0036209954	0.99883425	2.5967432e-07	-2.428696e-07	1
0	0.0020497534	-0.0019155839	0.9993799	0	0	0.025000023	0.0020497532	-0.0019155839	0.9993799	-1.7814839e-13	2.2186143e-15	6.675417e-19	-1.7610594e-13	0.004099231	-0.0038309107	0.99875975	2.7495912e-07	-2.5696204e-07	1
0	0.002177968	-0.002033611	0.9993379	0	0	0.019999987	0.0021779682	-0.002033611	0.9993379	-1.7814823e-13	2.2184307e-15	6.8763364e-19	-1.7607061e-13	0.0043556434	-0.0040669492	0.9986759	2.9217284e-07	-2.7280828e-07	1
0	0.0023234675	-0.0021672922	0.9992904	0	0	0.014999987	0.0023234675	-0.0021672924	0.99929035	-1.7814805e-13	2.218223e-15	7.093136e-19	-1.7603521e-13	0.004646623	-0.0043342942	0.99858075	3.1170714e-07	-2.907562e-07	1
0	0.002490047	-0.0023200214	0.9992361	0	0	0.009999993	0.002490047	-0.0023200214	0.9992361	-1.7814783e-13	2.2179854e-15	7.3281595e-19	-1.7599984e-13	0.0049797595	-0.0046397313	0.99847215	3.3407156e-07	-3.1126143e-07	1
0	0.0026831245	-0.0024966118	0.9991733	0	0	0.0049999966	0.0026831245	-0.0024966118	0.9991733	-1.7814759e-13	2.2177108e-15	7.5843704e-19	-1.7596448e-13	0.0053658886	-0.0049928883	0.9983467	3.5999352e-07	-3.3497025e-07	1
0	0.002907632	-0.0027013938	0.9991002	0	0	-9.887924e-17	0.002907632	-0.002701394	0.9991002	-1.7814732e-13	2.2173904e-15	7.8652975e-19	-1.7592912e-13	0.0058148736	-0.0054024253	0.9982005	3.901352e-07	-3.6246408e-07	1
0	0.003174112	-0.0029437104	0.99901384	0	0	-0.0049999966	0.0031741122	-0.0029437104	0.9990138	-1.7814694e-13	2.2170122e-15	8.175709e-19	-1.7589376e-13	0.0063477983	-0.005887026	0.99802756	4.2591188e-07	-3.949972e-07	1
0	0.00349348	-0.0032330416	0.9989102	0	0	-0.009999993	0.00349348	-0.0032330416	0.9989102	-1.7814655e-13	2.216558e-15	8.5217155e-19	-1.7585843e-13	0.006986491	-0.006465649	0.9978202	4.68789e-07	-4.338423e-07	1
0	0.0038867854	-0.0035877973	0.9987831	0	0	-0.014999987	0.0038867854	-0.0035877973	0.9987832	-1.7814599e-13	2.2160017e-15	8.9117e-19	-1.7582306e-13	0.007773049	-0.007175113	0.99756634	5.2159277e-07	-4.814712e-07	1
0	0.0043813125	-0.004031426	0.99862415	0	0	-0.019999987	0.0043813125	-0.0040314263	0.99862415	-1.7814533e-13	2.2153048e-15	9.357297e-19	-1.7578773e-13	0.008762037	-0.008062311	0.9972483	5.8798605e-07	-5.410319e-07	1
0	0.005023768	-0.004603834	0.99841875	0	0	-0.025000023	0.005023768	-0.004603834	0.9984188	-1.7814446e-13	2.2144046e-15	9.875475e-19	-1.7575238e-13	0.010046862	-0.00920705	0.9968376	6.742395e-07	-6.178822e-07	1
0	0.005887936	-0.005367139	0.9981432	0	0	-0.029999973	0.005887936	-0.005367139	0.9981432	-1.7814325e-13	2.2131976e-15	1.049241e-18	-1.7571707e-13	0.011775082	-0.010733557	0.9962865	7.902588e-07	-7.203615e-07	1
0	0.0071324045	-0.006452979	0.9977509	0	0	-0.035000023	0.0071324045	-0.006452979	0.9977509	-1.7814152e-13	2.211479e-15	1.1253226e-18	-1.7568175e-13	0.0142638525	-0.012905093	0.99550176	9.573351e-07	-8.661433e-07	1
0	0.009070003	-0.0081154695	0.9971435	0	0	-0.039999973	0.009070004	-0.0081154695	0.9971435	-1.7813881e-13	2.2088222e-15	1.2241858e-18	-1.7564642e-13	0.01813879	-0.01622985	0.99428713	1.2174667e-06	-1.0893432e-06	1
0	0.012650384	-0.011111714	0.99603534	0	0	-0.045000043	0.012650384	-0.011111714	0.9960353	-1.7813377e-13	2.2039876e-15	1.3664184e-18	-1.7561117e-13	0.025299069	-0.022221938	0.99207056	1.6981459e-06	-1.4916045e-06	1
0	0.02143149	-0.018287411	0.99306524	0	0	-0.050000045	0.021431495	-0.01828741	0.99306524	-1.7812019e-13	2.1911641e-15	1.6291871e-18	-1.7557596e-13	0.042860113	-0.036572363	0.9861304	2.87702e-06	-2.4549574e-06	1
0	0.02434954	-0.020728441	0.9914923	0	0	-0.05499994	0.02434954	-0.020728441	0.9914923	-1.781131e-13	2.1844594e-15	1.7949902e-18	-1.7554087e-13	0.048695814	-0.041454103	0.98298454	3.2687658e-06	-2.7826688e-06	1
0	0.024998877	-0.021272717	0.9911008	0	0	-0.059999947	0.024998877	-0.021272717	0.99110085	-1.7811134e-13	2.1827999e-15	1.8426623e-18	-1.7550581e-13	0.0499944	-0.042542577	0.9822017	3.3559445e-06	-2.855743e-06	1
0	0.025551524	-0.021737853	0.99074703	0	0	-0.065000035	0.025551524	-0.021737853	0.99074703	-1.7810975e-13	2.1813025e-15	1.887718e-18	-1.7547076e-13	0.051099617	-0.043472786	0.98149407	3.4301436e-06	-2.9181938e-06	1
0	0.026321791	-0.022387283	0.9902339	0	0	-0.070000045	0.026321791	-0.022387283	0.9902339	-1.7810747e-13	2.1791356e-15	1.95242e-18	-1.7543577e-13	0.052640054	-0.04477156	0.9804678	3.533559e-06	-3.0053868e-06	1
0	0.02721172	-0.023138046	0.98961943	0	0	-0.074999906	0.027211722	-0.023138046	0.98961943	-1.7810475e-13	2.1765475e-15	2.0276623e-18	-1.7540085e-13	0.054419793	-0.046272986	0.97923887	3.6530396e-06	-3.106185e-06	1
0	0.028190931	-0.023964293	0.98891854	0	0	-0.079999946	0.028190931	-0.023964293	0.9889186	-1.781016e-13	2.1736058e-15	2.1108777e-18	-1.7536593e-13	0.056378078	-0.047925364	0.9778371	3.784508e-06	-3.2171176e-06	1
0	0.029601766	-0.025154404	0.98786676	0	0	-0.08500003	0.029601766	-0.025154408	0.98786676	-1.7809694e-13	2.169211e-15	2.2298856e-18	-1.7533119e-13	0.059199557	-0.050305434	0.9757337	3.9739234e-06	-3.3769024e-06	1
0	0.03138041	-0.026653707	0.9864728	0	0	-0.090000086	0.03138041	-0.026653707	0.9864727	-1.780908e-13	2.1634246e-15	2.377822e-18	-1.7529661e-13	0.06275661	-0.053303834	0.9729454	4.2127203e-06	-3.5781984e-06	1
0	0.033151776	-0.028145885	0.9850056	0	0	-0.09500003	0.033151776	-0.028145885	0.9850056	-1.7808435e-13	2.157382e-15	2.5244671e-18	-1.7526213e-13	0.0662991	-0.05628799	0.97001123	4.450544e-06	-3.7785424e-06	1
0	0.040975355	-0.034714784	0.97760016	0	0	-0.10000009	0.040975355	-0.034714784	0.97760016	-1.7805256e-13	2.1276794e-15	3.1198742e-18	-1.7522983e-13	0.0819452	-0.069424905	0.9552004	5.500909e-06	-4.6604755e-06	1
0	0.0024651082	-0.002436468	0.10760275	0	0	-0.10499983	0.0024651084	-0.002436468	0.10760275	-1.7798396e-13	2.0608208e-15	3.040474e-17	-1.7581276e-13	0.0049298853	-0.0048726085	-0.7847945	3.3125423e-07	-3.2740684e-07	1
0	0.0011886008	-0.0021184105	0.09744388	0	0	-0.10999988	0.0011886008	-0.0021184103	0.09744388	-1.7799863e-13	2.074683e-15	3.3583358e-17	-1.7581451e-13	0.0023770416	-0.004236536	-0.80511224	1.5983369e-07	-2.845723e-07	1
0	0.0008035309	-0.002095127	0.09332994	0	0	-0.11499984	0.0008035309	-0.002095127	0.09332994	-1.7800415e-13	2.0799322e-15	3.496946e-17	-1.7581326e-13	0.0016069538	-0.0041899728	-0.81334007	1.08093786e-07	-2.8147113e-07	1
0	-0.001251247	-0.0010729186	0.073740885	0	0	-0.11999989	-0.0012512471	-0.0010729186	0.073740885	-1.7803184e-13	2.1062025e-15	4.0468898e-17	-1.7582255e-13	-0.0025023262	-0.0021456932	-0.8525182	-1.6803017e-07	-1.4424246e-07	1
0	-0.0013329145	-0.0009607674	0.07205929	0	0	-0.125	-0.0013329145	-0.0009607674	0.07205929	-1.7803397e-13	2.1082447e-15	4.1007694e-17	-1.7582096e-13	-0.0026656496	-0.0019214056	-0.85588145	-1.7903e-07	-1.2917869e-07	1
0	-0.0014266793	-0.00054519554	0.061445378	0	0	-0.13000007	-0.0014266793	-0.0005451955	0.061445378	-1.7804775e-13	2.1214453e-15	4.4303334e-17	-1.7582549e-13	-0.0028531668	-0.0010903176	-0.87710917	-1.9173862e-07	-7.329101e-08	1
0	-0.00052118767	0.0034517697	0.029952548	0	0	-0.13500017	-0.00052118767	0.00345177	0.029952548	-1.780949e-13	2.1664996e-15	4.9337062e-17	-1.7585044e-13	-0.0010423053	0.006903076	-0.94009495	-7.0117345e-08	4.6373927e-07	1
0	-0.0015636797	0.0011845689	0.00664909	0	0	-0.14000009	-0.0015636797	0.0011845689	0.00664909	-1.7813501e-13	2.2049608e-15	5.1973604e-17	-1.7587148e-13	-0.0031271488	0.0023689785	-0.98670185	-2.1018135e-07	1.5929604e-07	1
0	-0.0015283935	0.00112523	0.0063636703	0	0	-0.14500023	-0.0015283934	0.00112523	0.0063636703	-1.7813562e-13	2.205539e-15	5.1834754e-17	-1.7587171e-13	-0.0030565814	0.0022503086	-0.9872727	-2.0549228e-07	1.5133226e-07	1
0	-0.000897011	0.0008779244	0.0018915602	0	0	-0.14999981	-0.000897011	0.0008779244	0.0018915599	-1.7814511e-13	2.2144681e-15	5.111804e-17	-1.7587751e-13	-0.0017939016	0.0017557308	-0.9962169	-1.2056435e-07	1.1798926e-07	1
0	-0.0008865604	0.00087472284	0.0018162379	0	0	-0.15500008	-0.0008865604	0.00087472284	0.0018162379	-1.7814529e-13	2.2146578e-15	5.110598e-17	-1.7587754e-13	-0.0017730015	0.0017493282	-0.9963676	-1.19170686e-07	1.17568504e-07	1
0	-0.00082684535	0.0008209357	0.0012650272	0	0	-0.15999989	-0.00082684535	0.00082093576	0.0012650271	-1.7814679e-13	2.2160334e-15	5.0574627e-17	-1.7587875e-13	-0.0016535795	0.001641761	-0.99747	-1.11136075e-07	1.1034183e-07	1
0	-0.0008080975	0.0007997318	0.001158433	0	0	-0.1650002	-0.0008080975	0.0007997319	0.001158433	-1.7814709e-13	2.2162878e-15	5.0702863e-17	-1.7587873e-13	-0.0016160863	0.0015993562	-0.9976831	-1.0862167e-07	1.0749725e-07	1
0	-0.0007903294	0.0007799282	0.0010476393	0	0	-0.17000006	-0.0007903295	0.0007799282	0.0010476393	-1.7814733e-13	2.2165535e-15	5.0841634e-17	-1.7587867e-13	-0.0015805528	0.0015597515	-0.9979047	-1.0623871e-07	1.0484059e-07	1
0	-0.0007734536	0.0007614642	0.00095226755	0	0	-0.17499986	-0.0007734536	0.0007614642	0.00095226744	-1.7814755e-13	2.2167856e-15	5.096256e-17	-1.7587863e-13	-0.0015468032	0.001522826	-0.99809545	-1.03975445e-07	1.0236377e-07	1
0	-0.00076044747	0.0007480908	0.00091064186	0	0	-0.18000017	-0.00076044747	0.0007480908	0.0009106418	-1.7814767e-13	2.216892e-15	5.10099e-17	-1.758786e-13	-0.0015207927	0.0014960812	-0.9981787	-1.02233244e-07	1.0057223e-07	1
0	-0.0007510386	0.0007384357	0.00088101544	0	0	-0.18499996	-0.0007510386	0.0007384357	0.00088101544	-1.7814774e-13	2.216968e-15	5.10427e-17	-1.7587857e-13	-0.0015019763	0.0014767724	-0.99823797	-1.0097554e-07	9.9281365e-08	1
0	-0.00074307894	0.0007302991	0.0008571738	0	0	-0.19000006	-0.00074307894	0.00073029916	0.0008571739	-1.7814781e-13	2.2170295e-15	5.1068463e-17	-1.7587856e-13	-0.0014860581	0.0014605001	-0.99828565	-9.991288e-08	9.8194874e-08	1
0	-0.0007341596	0.00072119327	0.0008307356	0	0	-0.19499981	-0.0007341596	0.00072119315	0.00083073566	-1.7814787e-13	2.2170977e-15	5.109686e-17	-1.7587852e-13	-0.0014682205	0.0014422893	-0.9983386	-9.872063e-08	9.697749e-08	1
0	-0.0007195587	0.00070638396	0.000790765	0	0	-0.20499994	-0.0007195587	0.00070638396	0.000790765	-1.7814796e-13	2.2172028e-15	5.1136656e-17	-1.7587849e-13	-0.0014390206	0.0014126729	-0.99841845	-9.677194e-08	9.500067e-08	1
0	-0.0006808502	0.00066774484	0.0007077031	0	0	-0.25499967	-0.0006808502	0.0006677448	0.0007077032	-1.7814815e-13	2.2174293e-15	5.1190486e-17	-1.7587825e-13	-0.0013616087	0.0013353997	-0.99858457	-9.1644736e-08	8.988159e-08	1
0	-0.00065908296	0.00064629904	0.0006516169	0	0	-0.30500022	-0.00065908296	0.00064629904	0.0006516169	-1.7814828e-13	2.217575e-15	5.102478e-17	-1.7587827e-13	-0.0013180771	0.0012925109	-0.9986968	-8.879379e-08	8.70707e-08	1
0	-0.000553183	0.00053938595	0.00041951734	0	0	-0.3549996	-0.000553183	0.00053938595	0.00041951734	-1.7814888e-13	2.2182302e-15	5.0547088e-17	-1.7587905e-13	-0.0011062915	0.0010786991	-0.999161	-7.4574196e-08	7.271777e-08	1
0	-0.00038543047	0.00036354986	8.6097e-05	0	0	-0.40499973	-0.00038543047	0.00036354983	8.6097e-05	-1.7814988e-13	2.2192128e-15	4.741186e-17	-1.75883e-13	-0.00077080895	0.00072705065	-0.99982786	-5.1933895e-08	4.898564e-08	1
0	-0.0003470413	0.00032734757	7.506407e-05	0	0	-0.45500082	-0.0003470413	0.00032734757	7.506406e-05	-1.7814988e-13	2.2192598e-15	4.7394263e-17	-1.7588298e-13	-0.00069403584	0.00065465097	-0.99984986	-4.678488e-08	4.4129948e-08	1
0	-0.00031560345	0.00029769543	6.620217e-05	0	0	-0.5050003	-0.00031560345	0.00029769543	6.620217e-05	-1.7814988e-13	2.219298e-15	4.7379125e-17	-1.7588296e-13	-0.0006311643	0.0005953507	-0.9998676	-4.256824e-08	4.0152823e-08	1
0	-0.00028938556	0.0002729634	5.8951784e-05	0	0	-0.55500025	-0.00028938556	0.0002729634	5.895178e-05	-1.7814987e-13	2.2193288e-15	4.7365953e-17	-1.7588294e-13	-0.000578732	0.00054588995	-0.9998821	-3.905175e-08	3.683563e-08	1
0	-0.0002671879	0.0002520218	5.2923166e-05	0	0	-0.60500026	-0.00026718792	0.00025202183	5.2923166e-05	-1.7814987e-13	2.2193544e-15	4.735438e-17	-1.7588292e-13	-0.00053433975	0.00050400966	-0.99989414	-3.60745e-08	3.4026847e-08	1
0	-0.0002481514	0.00023406149	4.7847687e-05	0	0	-0.6549993	-0.0002481514	0.00023406147	4.7847687e-05	-1.7814987e-13	2.2193765e-15	4.7344126e-17	-1.7588292e-13	-0.00049626926	0.00046809134	-0.99990433	-3.3521243e-08	3.161793e-08	1
0	-0.00023164556	0.00021848803	4.352587e-05	0	0	-0.70500124	-0.00023164556	0.00021848803	4.352587e-05	-1.7814981e-13	2.2193949e-15	4.7334977e-17	-1.758829e-13	-0.00046325987	0.00043694655	-0.9999129	-3.1307433e-08	2.9529167e-08	1
0	-0.00021719799	0.0002048563	3.9806153e-05	0	0	-0.7549992	-0.00021719799	0.0002048563	3.9806153e-05	-1.7814981e-13	2.2194108e-15	4.7326765e-17	-1.7588287e-13	-0.00043436658	0.00040968487	-0.9999204	-2.9369685e-08	2.7700843e-08	1
0	-0.00020444619	0.00019282456	3.6577214e-05	0	0	-0.80500025	-0.00020444619	0.00019282455	3.6577214e-05	-1.7814981e-13	2.2194243e-15	4.731935e-17	-1.7588287e-13	-0.00040886473	0.000385623	-0.9999268	-2.7659404e-08	2.6087127e-08	1
0	-0.000193108	0.0001821265	3.375473e-05	0	0	-0.85500133	-0.000193108	0.0001821265	3.375473e-05	-1.7814979e-13	2.2194364e-15	4.731262e-17	-1.7588284e-13	-0.0003861899	0.00036422836	-0.9999324	-2.6138732e-08	2.4652302e-08	1
0	-0.00018296092	0.00017255235	3.1268457e-05	0	0	-0.9049992	-0.00018296092	0.00017255235	3.1268457e-05	-1.7814977e-13	2.219447e-15	4.7306486e-17	-1.7588283e-13	-0.00036589708	0.00034508132	-0.9999375	-2.4777815e-08	2.3368221e-08	1
0	-0.00017382624	0.00016393347	2.9066174e-05	0	0	-0.95500135	-0.00017382625	0.00016393347	2.9066174e-05	-1.7814976e-13	2.2194563e-15	4.730087e-17	-1.7588281e-13	-0.0003476289	0.00032784473	-0.99994195	-2.3552694e-08	2.2212275e-08	1
0	-0.0001663507	0.0001568802	2.7291042e-05	0	0	-1	-0.0001663507	0.0001568802	2.729104e-05	-1.7814976e-13	2.2194637e-15	4.7296212e-17	-1.7588281e-13	-0.00033267887	0.00031373912	-0.9999454	-2.25501e-08	2.126631e-08	1
0	-0.00017469449	0.00016475255	2.9275647e-05	0	0	-0.94999886	-0.0001746945	0.00016475255	2.9275645e-05	-1.7814976e-13	2.2194554e-15	4.7301413e-17	-1.7588281e-13	-0.00034936535	0.00032948278	-0.9999414	-2.3669136e-08	2.2322121e-08	1
0	-0.00018392279	0.00017345979	3.1501888e-05	0	0	-0.900001	-0.00018392279	0.00017345979	3.1501888e-05	-1.7814977e-13	2.219446e-15	4.730707e-17	-1.7588283e-13	-0.00036782073	0.00034689612	-0.99993706	-2.4906814e-08	2.3489921e-08	1
0	-0.00019418065	0.00018313844	3.4021563e-05	0	0	-0.849999	-0.00019418065	0.00018313844	3.4021556e-05	-1.7814979e-13	2.2194353e-15	4.7313262e-17	-1.7588284e-13	-0.00038833494	0.00036625212	-0.9999319	-2.6282583e-08	2.4788015e-08	1
0	-0.00020564915	0.00019395941	3.6880367e-05	0	0	-0.8000007	-0.00020564915	0.00019395941	3.6880367e-05	-1.7814981e-13	2.2194228e-15	4.732006e-17	-1.7588287e-13	-0.00041127048	0.0003878926	-0.99992615	-2.7820743e-08	2.6239332e-08	1
0	-0.0002185566	0.00020613811	4.0153976e-05	0	0	-0.75	-0.0002185566	0.00020613811	4.015398e-05	-1.7814981e-13	2.2194089e-15	4.732755e-17	-1.7588287e-13	-0.00043708363	0.0004122483	-0.99991965	-2.9551904e-08	2.7872755e-08	1
0	-0.00023319137	0.00021994636	4.392753e-05	0	0	-0.69999945	-0.00023319137	0.00021994633	4.392754e-05	-1.7814984e-13	2.219393e-15	4.733585e-17	-1.7588287e-13	-0.00046635128	0.00043986298	-0.99991214	-3.151475e-08	2.9724752e-08	1
0	-0.00024992586	0.00023573532	4.8319387e-05	0	0	-0.6500008	-0.00024992583	0.0002357353	4.8319387e-05	-1.7814987e-13	2.219374e-15	4.73451e-17	-1.7588292e-13	-0.00049981795	0.00047143875	-0.9999034	-3.3759235e-08	3.1842426e-08	1
0	-0.00026924553	0.00025396276	5.3479514e-05	0	0	-0.59999925	-0.00026924553	0.00025396276	5.3479514e-05	-1.7814987e-13	2.2193523e-15	4.735547e-17	-1.7588292e-13	-0.00053845474	0.00050789124	-0.99989307	-3.635047e-08	3.4287165e-08	1
0	-0.0002918019	0.00027524252	5.9613707e-05	0	0	-0.5499998	-0.0002918019	0.00027524252	5.9613707e-05	-1.7814987e-13	2.2193263e-15	4.7367197e-17	-1.7588294e-13	-0.00058356446	0.0005504479	-0.9998808	-3.9375838e-08	3.7141312e-08	1
0	-0.00031847783	0.00030040622	6.700693e-05	0	0	-0.5	-0.00031847783	0.00030040622	6.700692e-05	-1.7814988e-13	2.2192947e-15	4.738055e-17	-1.7588296e-13	-0.00063691277	0.0006007719	-0.999866	-4.2953765e-08	4.0516404e-08	1
0	-0.0003505168	0.00033062435	7.605584e-05	0	0	-0.4500005	-0.0003505168	0.00033062435	7.605584e-05	-1.7814988e-13	2.2192558e-15	4.73959e-17	-1.7588298e-13	-0.0007009864	0.00066120416	-0.99984795	-4.7251028e-08	4.4569447e-08	1
0	-0.00038972322	0.00036759482	8.734806e-05	0	0	-0.40000036	-0.00038972322	0.00036759482	8.734806e-05	-1.7814988e-13	2.219207e-15	4.7413778e-17	-1.75883e-13	-0.00077939394	0.00073514023	-0.9998253	-5.2509666e-08	4.9528175e-08	1
0	-0.00043879307	0.00041385027	0.00010176137	0	0	-0.34999973	-0.0004387931	0.00041385027	0.00010176137	-1.7814988e-13	2.2191456e-15	4.7434864e-17	-1.7588304e-13	-0.00087752705	0.0008276448	-0.99979645	-5.9091274e-08	5.5732272e-08	1
0	-0.0005019904	0.0004733951	0.000120701094	0	0	-0.29999962	-0.0005019904	0.00047339508	0.000120701094	-1.7814987e-13	2.219064e-15	4.7460182e-17	-1.7588308e-13	-0.0010039131	0.0009467264	-0.9997586	-6.75678e-08	6.371886e-08	1
0	-0.00058644847	0.00055291166	0.00014652484	0	0	-0.25	-0.00058644847	0.00055291166	0.00014652485	-1.7814984e-13	2.2189525e-15	4.7491218e-17	-1.7588314e-13	-0.0011728181	0.001105749	-0.999707	-7.889602e-08	7.438422e-08	1
0	-0.0007196019	0.0006781115	0.0001880978	0	0	-0.19499981	-0.0007196019	0.0006781115	0.00018809781	-1.7814976e-13	2.218773e-15	4.7534827e-17	-1.7588319e-13	-0.0014391072	0.0013561317	-0.9996238	-9.675574e-08	9.1176965e-08	1
0	-0.0007347728	0.0006923618	0.00019288593	0	0	-0.19000006	-0.0007347728	0.0006923618	0.00019288594	-1.7814976e-13	2.2187524e-15	4.753944e-17	-1.7588319e-13	-0.0014694468	0.0013846306	-0.99961424	-9.879061e-08	9.308832e-08	1
0	-0.0007505816	0.0007072088	0.00019788477	0	0	-0.18499996	-0.0007505816	0.0007072088	0.00019788477	-1.7814974e-13	2.2187304e-15	4.754418e-17	-1.7588322e-13	-0.0015010623	0.0014143225	-0.9996042	-1.0091099e-07	9.5079706e-08	1
0	-0.00076710415	0.00072272244	0.00020311511	0	0	-0.18000017	-0.00076710415	0.00072272244	0.00020311511	-1.7814974e-13	2.2187081e-15	4.7549058e-17	-1.7588323e-13	-0.0015341052	0.0014453478	-0.99959385	-1.03127164e-07	9.7160516e-08	1
0	-0.0007843466	0.00073890894	0.0002085906	0	0	-0.17499986	-0.0007843466	0.0007389089	0.00020859062	-1.7814972e-13	2.218684e-15	4.7554084e-17	-1.7588322e-13	-0.0015685878	0.0014777186	-0.99958277	-1.0543987e-07	9.933158e-08	1
0	-0.000802403	0.00075585494	0.00021432877	0	0	-0.17000006	-0.000802403	0.00075585494	0.00021432876	-1.781497e-13	2.2186592e-15	4.7559252e-17	-1.7588323e-13	-0.0016046982	0.0015116084	-0.9995713	-1.0786175e-07	1.01604506e-07	1
0	-0.00082131603	0.00077360094	0.00022035037	0	0	-0.1650002	-0.00082131603	0.000773601	0.00022035037	-1.7814968e-13	2.2186334e-15	4.7564576e-17	-1.7588322e-13	-0.0016425218	0.0015470978	-0.99955934	-1.1039856e-07	1.03984725e-07	1
0	-0.0008411157	0.0007921726	0.00022666877	0	0	-0.15999989	-0.0008411157	0.0007921726	0.00022666875	-1.7814968e-13	2.218606e-15	4.7570055e-17	-1.7588325e-13	-0.0016821184	0.0015842386	-0.9995467	-1.1305426e-07	1.06475696e-07	1