# t (s)	mx ()	my ()	mz ()	B_extx (T)	B_exty (T)	B_extz (T)	mx ()	my ()	mz ()	E_anis (J)	E_demag (J)	E_exch (J)	E_total (J)	m_zrange1_x ()	m_zrange1_y ()	m_zrange1_z ()	m_zrange0_x ()	m_zrange0_y ()	m_zrange0_z ()
0	0	0	1	0	0	1	0	0	1	-1.7804318e-13	2.221299e-15	-0	-1.8289977e-13	0	0	1	0	0	1
0	0.0001671934	-0.00015766965	0.99997395	0	0	0.94999886	0.00016719342	-0.00015766965	0.99997395	-1.7804366e-13	2.2211923e-15	1.02894974e-19	-1.8254617e-13	0.0003343646	-0.00031531835	0.9999478	2.2221002e-08	-2.0955238e-08	1
0	0.00017648918	-0.0001664397	0.99997187	0	0	0.900001	0.00017648918	-0.0001664397	0.99997187	-1.7804367e-13	2.2211838e-15	1.08209674e-19	-1.8219229e-13	0.0003529549	-0.00033285725	0.99994373	2.3468157e-08	-2.213186e-08	1
0	0.00018687862	-0.00017624159	0.99996954	0	0	0.849999	0.00018687862	-0.00017624158	0.9999695	-1.7804368e-13	2.2211734e-15	1.140492e-19	-1.818384e-13	0.0003737324	-0.00035245973	0.9999391	2.4862059e-08	-2.3446932e-08	1
0	0.00019856746	-0.00018726932	0.9999668	0	0	0.8000007	0.00019856746	-0.00018726935	0.9999668	-1.7804371e-13	2.2211624e-15	1.2049524e-19	-1.8148455e-13	0.0003971085	-0.00037451374	0.9999336	2.6430312e-08	-2.4926479e-08	1
0	0.00021181625	-0.00019976869	0.99996376	0	0	0.75	0.00021181624	-0.00019976869	0.99996376	-1.7804371e-13	2.221149e-15	1.2764788e-19	-1.8113065e-13	0.00042360433	-0.00039951078	0.9999274	2.820787e-08	-2.6603484e-08	1
0	0.0002269577	-0.00021405348	0.99996006	0	0	0.69999945	0.00022695771	-0.00021405348	0.99996006	-1.7804374e-13	2.2211336e-15	1.3563066e-19	-1.807768e-13	0.00045388512	-0.0004280784	0.9999201	3.0239377e-08	-2.8520056e-08	1
0	0.00024442986	-0.00023053636	0.99995583	0	0	0.6500008	0.00024442983	-0.00023053636	0.99995583	-1.7804375e-13	2.2211152e-15	1.4459878e-19	-1.8042291e-13	0.00048882706	-0.000461042	0.9999116	3.258361e-08	-3.073155e-08	1
0	0.00026481334	-0.00024976474	0.99995077	0	0	0.59999925	0.00026481334	-0.00024976477	0.99995077	-1.7804375e-13	2.2210936e-15	1.5474971e-19	-1.8006903e-13	0.00052959134	-0.0004994962	0.9999015	3.531848e-08	-3.3311437e-08	1
0	0.0002889036	-0.00027248773	0.9999447	0	0	0.5499998	0.0002889036	-0.00027248776	0.9999447	-1.7804376e-13	2.2210678e-15	1.6633951e-19	-1.7971516e-13	0.00057776866	-0.0005449391	0.9998894	3.8550702e-08	-3.6360213e-08	1
0	0.00031781488	-0.00029975452	0.99993724	0	0	0.5	0.00031781488	-0.00029975455	0.99993724	-1.7804376e-13	2.2210358e-15	1.7970699e-19	-1.7936127e-13	0.0006355873	-0.00059946906	0.9998745	4.2429793e-08	-4.001867e-08	1
0	0.00035315193	-0.00033307532	0.99992806	0	0	0.4500005	0.00035315196	-0.00033307532	0.999928	-1.7804376e-13	2.2209964e-15	1.9531091e-19	-1.7900739e-13	0.0007062568	-0.00066610606	0.999856	4.717107e-08	-4.4489433e-08	1
0	0.0003973146	-0.0003747057	0.9999162	0	0	0.40000036	0.0003973146	-0.00037470568	0.99991626	-1.7804376e-13	2.2209452e-15	2.137913e-19	-1.7865352e-13	0.00079457613	-0.0007493613	0.99983233	5.3096542e-08	-5.007515e-08	1
0	0.00045409385	-0.0004282057	0.9999007	0	0	0.34999973	0.00045409388	-0.0004282057	0.9999007	-1.7804376e-13	2.2208785e-15	2.3607396e-19	-1.7829966e-13	0.00090812705	-0.00085635425	0.9998014	6.0714854e-08	-5.7253516e-08	1
0	0.00052980514	-0.00049949775	0.99987954	0	0	0.29999962	0.0005298051	-0.00049949775	0.99987966	-1.7804376e-13	2.2207878e-15	2.635588e-19	-1.7794582e-13	0.0010595394	-0.0009989287	0.9997592	7.08734e-08	-6.681917e-08	1
0	0.00063580344	-0.0005992028	0.9998495	0	0	0.25	0.00063580344	-0.00059920276	0.9998495	-1.7804372e-13	2.2206578e-15	2.9848833e-19	-1.7759196e-13	0.0012715218	-0.0011983253	0.99969906	8.509575e-08	-8.0197225e-08	1
0	0.0008151433	-0.0007675827	0.9997975	0	0	0.19499981	0.0008151433	-0.0007675827	0.9997976	-1.7804364e-13	2.2204323e-15	3.5024e-19	-1.7720276e-13	0.0016301776	-0.0015350624	0.99959505	1.0915879e-07	-1.0278993e-07	1
0	0.00083660934	-0.00078770495	0.99979126	0	0	0.19000006	0.0008366094	-0.00078770495	0.99979126	-1.7804362e-13	2.220405e-15	3.559208e-19	-1.7716738e-13	0.0016731067	-0.0015753044	0.9995825	1.1203901e-07	-1.0548989e-07	1
0	0.00085921417	-0.000808891	0.99978465	0	0	0.18499996	0.0008592141	-0.000808891	0.99978465	-1.7804359e-13	2.2203764e-15	3.618058e-19	-1.7713198e-13	0.0017183131	-0.0016176737	0.9995693	1.1507203e-07	-1.0833258e-07	1
0	0.00088309427	-0.0008312659	0.9997776	0	0	0.18000017	0.00088309427	-0.0008312659	0.9997776	-1.7804356e-13	2.220346e-15	3.6790745e-19	-1.7709659e-13	0.0017660701	-0.0016624203	0.99955535	1.18276155e-07	-1.1133477e-07	1
0	0.0009083032	-0.0008548779	0.9997703	0	0	0.17499986	0.0009083032	-0.00085487776	0.99977034	-1.7804353e-13	2.2203137e-15	3.7423843e-19	-1.7706119e-13	0.0018164848	-0.0017096412	0.9995405	1.2165859e-07	-1.14502974e-07	1
0	0.00093502545	-0.00087989715	0.9997623	0	0	0.17000006	0.00093502545	-0.0008798971	0.9997623	-1.7804353e-13	2.2202798e-15	3.808142e-19	-1.7702583e-13	0.0018699256	-0.0017596765	0.9995248	1.2524407e-07	-1.1786001e-07	1
0	0.0009633408	-0.00090639846	0.9997541	0	0	0.1650002	0.0009633408	-0.0009063984	0.9997541	-1.7804352e-13	2.2202434e-15	3.8765023e-19	-1.7699046e-13	0.0019265526	-0.0018126755	0.9995081	1.2904331e-07	-1.2141588e-07	1
0	0.0009934646	-0.0009345792	0.99974513	0	0	0.15999989	0.0009934646	-0.00093457924	0.99974513	-1.780435e-13	2.2202046e-15	3.9476443e-19	-1.7695506e-13	0.0019867958	-0.0018690333	0.99949026	1.3308518e-07	-1.251971e-07	1
0	0.0010254857	-0.0009645234	0.99973565	0	0	0.15500008	0.0010254856	-0.0009645234	0.9997356	-1.7804345e-13	2.2201636e-15	4.0217586e-19	-1.7691966e-13	0.0020508338	-0.0019289175	0.99947137	1.3738165e-07	-1.2921494e-07	1
0	0.0010596219	-0.00099643	0.9997256	0	0	0.14999981	0.0010596219	-0.0009964302	0.9997256	-1.7804343e-13	2.2201197e-15	4.0990643e-19	-1.7688429e-13	0.0021191018	-0.0019927265	0.99945116	1.419619e-07	-1.334961e-07	1
0	0.0010961485	-0.0010305528	0.99971473	0	0	0.14500023	0.0010961485	-0.0010305528	0.9997147	-1.7804341e-13	2.220073e-15	4.1797904e-19	-1.7684892e-13	0.0021921503	-0.0020609675	0.9994295	1.4686292e-07	-1.3807461e-07	1
0	0.0011353657	-0.0010671685	0.99970317	0	0	0.14000009	0.0011353655	-0.0010671685	0.99970317	-1.780434e-13	2.220022e-15	4.2641952e-19	-1.7681353e-13	0.002270579	-0.0021341941	0.9994062	1.521249e-07	-1.4298764e-07	1
0	0.0011774322	-0.0011064238	0.99969065	0	0	0.13500017	0.0011774324	-0.0011064238	0.99969065	-1.7804333e-13	2.2199675e-15	4.352585e-19	-1.7677813e-13	0.0023547069	-0.0022126995	0.99938124	1.5776925e-07	-1.4825486e-07	1
0	0.0012226724	-0.0011486142	0.9996772	0	0	0.13000007	0.0012226725	-0.0011486143	0.9996772	-1.7804329e-13	2.2199088e-15	4.4452665e-19	-1.7674278e-13	0.0024451814	-0.0022970745	0.99935436	1.638394e-07	-1.5391586e-07	1
0	0.0012715696	-0.0011941844	0.99966264	0	0	0.125	0.0012715696	-0.0011941844	0.99966264	-1.7804325e-13	2.2198453e-15	4.542618e-19	-1.7670742e-13	0.0025429688	-0.0023882089	0.9993253	1.7040021e-07	-1.6003035e-07	1
0	0.001324538	-0.0012435139	0.9996469	0	0	0.11999989	0.0013245381	-0.0012435139	0.9996469	-1.780432e-13	2.2197765e-15	4.645044e-19	-1.76672e-13	0.0026488984	-0.002486861	0.99929374	1.775073e-07	-1.6664927e-07	1
0	0.0013820676	-0.0012970485	0.99962974	0	0	0.11499984	0.0013820675	-0.0012970486	0.99962974	-1.7804317e-13	2.2197015e-15	4.753018e-19	-1.7663665e-13	0.0027639496	-0.0025939236	0.99925935	1.8522638e-07	-1.7383246e-07	1
0	0.0014448345	-0.0013554102	0.99961096	0	0	0.10999988	0.0014448346	-0.0013554101	0.99961096	-1.7804309e-13	2.2196204e-15	4.867064e-19	-1.7660125e-13	0.0028894756	-0.0027106388	0.99922204	1.9364822e-07	-1.8166328e-07	1
0	0.0015136582	-0.0014193486	0.99959046	0	0	0.10499983	0.0015136582	-0.0014193488	0.99959046	-1.7804305e-13	2.2195306e-15	4.987796e-19	-1.7656589e-13	0.0030271136	-0.0028385073	0.999181	2.028827e-07	-1.9024243e-07	1
0	0.0015893357	-0.0014895855	0.9995679	0	0	0.10000009	0.0015893357	-0.0014895855	0.9995679	-1.7804295e-13	2.219432e-15	5.1159084e-19	-1.7653052e-13	0.0031784587	-0.0029789715	0.9991358	2.1303683e-07	-1.9966666e-07	1
0	0.0016732487	-0.0015673831	0.99954283	0	0	0.09500003	0.0016732487	-0.0015673831	0.99954283	-1.7804287e-13	2.2193229e-15	5.2522464e-19	-1.7649513e-13	0.003346273	-0.003134556	0.9990859	2.2429592e-07	-2.1010536e-07	1
0	0.0017660186	-0.0016532948	0.9995151	0	0	0.090000086	0.0017660188	-0.001653295	0.9995152	-1.7804277e-13	2.219202e-15	5.397692e-19	-1.7645973e-13	0.0035318006	-0.0033063684	0.9990304	2.3674346e-07	-2.2163286e-07	1
0	0.0018696734	-0.0017491713	0.9994841	0	0	0.08500003	0.0018696733	-0.0017491712	0.9994842	-1.7804272e-13	2.2190658e-15	5.553389e-19	-1.764244e-13	0.003739096	-0.0034981081	0.99896836	2.5065142e-07	-2.3449734e-07	1
0	0.0019868282	-0.0018573968	0.9994493	0	0	0.079999946	0.0019868282	-0.0018573968	0.9994493	-1.7804257e-13	2.2189133e-15	5.7207113e-19	-1.7638901e-13	0.0039733895	-0.0037145442	0.9988986	2.6637076e-07	-2.490188e-07	1
0	0.0021192024	-0.001979498	0.9994098	0	0	0.074999906	0.0021192024	-0.0019794982	0.9994098	-1.7804245e-13	2.218741e-15	5.9011923e-19	-1.7635363e-13	0.0042381207	-0.003958731	0.9988196	2.8413226e-07	-2.6540212e-07	1
0	0.0022707868	-0.0021190813	0.9993646	0	0	0.070000045	0.0022707866	-0.0021190816	0.9993646	-1.7804227e-13	2.2185432e-15	6.0968495e-19	-1.7631826e-13	0.0045412686	-0.004237879	0.9987294	3.0447123e-07	-2.841311e-07	1
0	0.002445941	-0.002280108	0.99931264	0	0	0.065000035	0.002445941	-0.0022801077	0.99931264	-1.780421e-13	2.218315e-15	6.3100186e-19	-1.762829e-13	0.0048915544	-0.004559909	0.99862534	3.2797274e-07	-3.0573725e-07	1
0	0.0026495573	-0.0024668984	0.999252	0	0	0.059999947	0.002649557	-0.0024668984	0.999252	-1.7804187e-13	2.21805e-15	6.543703e-19	-1.7624751e-13	0.005298759	-0.0049334667	0.9985041	3.5529314e-07	-3.3080045e-07	1
0	0.0028904928	-0.0026874228	0.9991805	0	0	0.05499994	0.0028904928	-0.002687423	0.9991805	-1.7804161e-13	2.2177364e-15	6.8017764e-19	-1.7621215e-13	0.0057805977	-0.0053744856	0.99836105	3.876209e-07	-3.603899e-07	1
0	0.003179792	-0.0029514784	0.9990947	0	0	0.050000045	0.003179792	-0.0029514784	0.9990947	-1.7804131e-13	2.2173603e-15	7.0893023e-19	-1.7617681e-13	0.006359157	-0.005902561	0.99818945	4.2643785e-07	-3.9582017e-07	1
0	0.0035338982	-0.0032737218	0.99899006	0	0	0.045000043	0.003533898	-0.0032737218	0.9989901	-1.780409e-13	2.2169014e-15	7.4129233e-19	-1.7614145e-13	0.007067322	-0.006547004	0.9979801	4.7395042e-07	-4.39058e-07	1
0	0.003977095	-0.0036755488	0.9988594	0	0	0.039999973	0.003977095	-0.0036755488	0.99885935	-1.780404e-13	2.2163278e-15	7.781966e-19	-1.761061e-13	0.007953657	-0.007350604	0.9977188	5.334166e-07	-4.929741e-07	1
0	0.004549768	-0.004192367	0.9986915	0	0	0.035000023	0.004549768	-0.004192367	0.9986914	-1.7803977e-13	2.2155909e-15	8.209975e-19	-1.7607076e-13	0.009098926	-0.008384172	0.9973829	6.1025537e-07	-5.6231937e-07	1
0	0.00530731	-0.004872302	0.99846846	0	0	0.029999973	0.00530731	-0.004872302	0.9984684	-1.7803889e-13	2.2146127e-15	8.716706e-19	-1.760354e-13	0.010613909	-0.00974395	0.99693686	7.118991e-07	-6.53551e-07	1
0	0.0063870167	-0.00583345	0.99815476	0	0	0.025000023	0.0063870163	-0.0058334502	0.99815476	-1.7803762e-13	2.2132363e-15	9.336594e-19	-1.7600008e-13	0.012773176	-0.011666117	0.99630946	8.567692e-07	-7.8251475e-07	1
0	0.008025831	-0.0072759595	0.99768144	0	0	0.019999987	0.008025831	-0.0072759595	0.99768144	-1.7803571e-13	2.2111615e-15	1.0129052e-18	-1.7596477e-13	0.016050585	-0.014550944	0.9953629	1.0766576e-06	-9.76066e-07	1
0	0.010785313	-0.00966544	0.9968823	0	0	0.014999987	0.010785313	-0.00966544	0.9968823	-1.7803241e-13	2.2076635e-15	1.1216446e-18	-1.7592945e-13	0.021569181	-0.019329583	0.99376464	1.4469109e-06	-1.2966775e-06	1
0	0.016681561	-0.014637174	0.9951638	0	0	0.009999993	0.016681561	-0.014637174	0.9951638	-1.7802525e-13	2.20017e-15	1.2945944e-18	-1.7589422e-13	0.033360884	-0.029272389	0.99032766	2.2380377e-06	-1.9637632e-06	1
0	0.031303618	-0.026719477	0.98967314	0	0	0.0049999966	0.031303618	-0.026719477	0.98967314	-1.7800232e-13	2.1766104e-15	1.649436e-18	-1.7585908e-13	0.06260304	-0.05343537	0.9793462	4.199932e-06	-3.5848993e-06	1
0	0.034061354	-0.029042339	0.98804855	0	0	-9.887924e-17	0.034061354	-0.029042339	0.98804855	-1.7799568e-13	2.1697594e-15	1.7802147e-18	-1.7582413e-13	0.06811814	-0.058080785	0.9760972	4.569957e-06	-3.8965786e-06	1
0	0.034632303	-0.029524453	0.9876801	0	0	-0.0049999966	0.034632303	-0.029524453	0.9876801	-1.7799416e-13	2.1682116e-15	1.813319e-18	-1.7578918e-13	0.069259964	-0.059044946	0.97536016	4.646576e-06	-3.961277e-06	1
0	0.03547226	-0.030235294	0.9871129	0	0	-0.009999993	0.03547226	-0.030235294	0.9871129	-1.7799186e-13	2.1658344e-15	1.8653977e-18	-1.7575428e-13	0.07093976	-0.06046654	0.97422576	4.759292e-06	-4.0566674e-06	1
0	0.036527812	-0.0311292	0.9863737	0	0	-0.014999987	0.036527812	-0.0311292	0.9863737	-1.7798886e-13	2.1627457e-15	1.9317225e-18	-1.7571947e-13	0.07305072	-0.062254224	0.97274745	4.900937e-06	-4.176622e-06	1
0	0.03777237	-0.032183263	0.9854701	0	0	-0.019999987	0.03777237	-0.032183263	0.9854701	-1.7798519e-13	2.1589826e-15	2.0100871e-18	-1.7568469e-13	0.07553967	-0.06436221	0.97094023	5.0679446e-06	-4.31807e-06	1
0	0.039102152	-0.033309337	0.9844677	0	0	-0.025000023	0.039102152	-0.033309337	0.9844677	-1.7798116e-13	2.1548256e-15	2.094022e-18	-1.7565005e-13	0.07819906	-0.06661421	0.9689353	5.2463924e-06	-4.469184e-06	1
0	0.040818997	-0.03476262	0.9831185	0	0	-0.029999973	0.040818997	-0.03476262	0.9831185	-1.7797574e-13	2.1492603e-15	2.2020201e-18	-1.7561553e-13	0.08163251	-0.06952058	0.96623695	5.4767806e-06	-4.664207e-06	1
0	0.044507407	-0.03788032	0.98002124	0	0	-0.035000023	0.0445074	-0.03788032	0.9800213	-1.779634e-13	2.1366133e-15	2.4255157e-18	-1.7558158e-13	0.08900883	-0.07575557	0.9600425	5.9717318e-06	-5.082583e-06	1
0	0.05071574	-0.043110974	0.9741745	0	0	-0.039999973	0.050715737	-0.043110974	0.9741745	-1.779405e-13	2.1132333e-15	2.775326e-18	-1.7554869e-13	0.10142467	-0.086216174	0.9483491	6.8048557e-06	-5.784524e-06	1
0	-0.003374215	0.00076486263	0.27080426	0	0	-0.045000043	-0.0033742147	0.00076486263	0.27080426	-1.776972e-13	1.8614544e-15	-3.9122586e-17	-1.7578861e-13	-0.0067479764	0.0015296227	-0.4583915	-4.530058e-07	1.0271166e-07	1
0	-0.002879834	0.000455506	0.2516761	0	0	-0.050000045	-0.002879834	0.000455506	0.2516761	-1.7771708e-13	1.8815691e-15	-3.3150133e-17	-1.7577958e-13	-0.0057592816	0.00091095094	-0.49664775	-3.8665775e-07	6.118492e-08	1
0	-0.0026125398	0.00014855902	0.23632565	0	0	-0.05499994	-0.0026125396	0.00014855903	0.23632565	-1.7773349e-13	1.8983148e-15	-2.7883206e-17	-1.7577106e-13	-0.005224729	0.000297098	-0.52734876	-3.5079037e-07	1.9977263e-08	1
0	-0.002370113	-0.00015411235	0.2236639	0	0	-0.059999947	-0.002370113	-0.00015411233	0.2236639	-1.7774733e-13	1.9124628e-15	-2.3176032e-17	-1.7576304e-13	-0.004739908	-0.00030820392	-0.55267227	-3.182584e-07	-2.0658472e-08	1
0	-0.0021328493	-0.0004932883	0.21234445	0	0	-0.065000035	-0.0021328493	-0.0004932883	0.21234445	-1.7776e-13	1.9254666e-15	-1.8718176e-17	-1.7575557e-13	-0.004265412	-0.0009865103	-0.57531106	-2.864167e-07	-6.6198226e-08	1
0	-0.0019596233	-0.000863628	0.20173901	0	0	-0.070000045	-0.0019596233	-0.000863628	0.20173901	-1.777722e-13	1.9379574e-15	-1.435627e-17	-1.7574864e-13	-0.0039189835	-0.00172714	-0.596522	-2.63166e-07	-1.1592735e-07	1
0	-0.0018754841	-0.0012055797	0.19199803	0	0	-0.074999906	-0.0018754841	-0.0012055796	0.19199803	-1.7778357e-13	1.9496043e-15	-1.0196698e-17	-1.7574223e-13	-0.0037507166	-0.0024109976	-0.61600393	-2.5187842e-07	-1.6185301e-07	1
0	-0.0017122396	-0.0015753777	0.17800076	0	0	-0.079999946	-0.0017122396	-0.0015753778	0.17800076	-1.7780074e-13	1.9672076e-15	-4.4532306e-18	-1.7573718e-13	-0.0034242491	-0.003150544	-0.6439985	-2.2997526e-07	-2.1153323e-07	1
0	-0.001558706	-0.0017116204	0.17154516	0	0	-0.08500003	-0.0015587059	-0.0017116204	0.17154516	-1.7780807e-13	1.9748023e-15	-1.5920502e-18	-1.7573165e-13	-0.0031172023	-0.0034230112	-0.6569097	-2.0937904e-07	-2.2983235e-07	1
0	-0.0006993315	-0.0021306984	0.1566143	0	0	-0.090000086	-0.0006993316	-0.0021306984	0.1566143	-1.7782679e-13	1.9940005e-15	4.5542286e-18	-1.7572846e-13	-0.0013985691	-0.004261111	-0.6867714	-9.39672e-08	-2.861282e-07	1
0	-0.00054117315	-0.0027751254	0.1446754	0	0	-0.09500003	-0.0005411731	-0.0027751254	0.1446754	-1.7784096e-13	2.0086205e-15	9.4209254e-18	-1.7572564e-13	-0.0010822733	-0.0055498783	-0.7106492	-7.2708644e-08	-3.7268973e-07	1
0	-0.0005125593	-0.0029988282	0.13944787	0	0	-0.10000009	-0.0005125594	-0.0029988282	0.13944787	-1.7784675e-13	2.014656e-15	1.1842263e-17	-1.7572158e-13	-0.0010250498	-0.0059972536	-0.7211043	-6.886915e-08	-4.027482e-07	1
0	-0.00053716305	-0.0033326703	0.13282715	0	0	-0.10499983	-0.00053716305	-0.0033326703	0.13282715	-1.7785411e-13	2.022295e-15	1.5032606e-17	-1.7571806e-13	-0.001074254	-0.0066648936	-0.73434573	-7.216171e-08	-4.4759693e-07	1
0	-0.00060532487	-0.0036234178	0.12781146	0	0	-0.10999988	-0.00060532487	-0.003623418	0.12781149	-1.7785938e-13	2.0278132e-15	1.753516e-17	-1.7571453e-13	-0.0012105686	-0.00724635	-0.744377	-8.131714e-08	-4.8666203e-07	1
0	-0.0006367342	-0.0038527162	0.12381531	0	0	-0.11499984	-0.0006367342	-0.0038527162	0.12381532	-1.7786346e-13	2.0320566e-15	1.9621381e-17	-1.7571101e-13	-0.001273383	-0.007704915	-0.75236934	-8.55539e-08	-5.174833e-07	1
0	-0.000612029	-0.00405161	0.11994094	0	0	-0.11999989	-0.00061202893	-0.00405161	0.11994094	-1.7786736e-13	2.036137e-15	2.171067e-17	-1.7570765e-13	-0.0012239759	-0.008102676	-0.76011807	-8.2262936e-08	-5.442316e-07	1
0	-0.0005290713	-0.004228454	0.115814105	0	0	-0.125	-0.00052907126	-0.0042284536	0.115814105	-1.778716e-13	2.0405214e-15	2.3969335e-17	-1.7570463e-13	-0.0010580716	-0.00845634	-0.7683719	-7.114191e-08	-5.6802867e-07	1
0	-0.00043385514	-0.004355824	0.111946546	0	0	-0.13000007	-0.0004338551	-0.004355824	0.111946546	-1.7787559e-13	2.04469e-15	2.6098005e-17	-1.757018e-13	-0.00086765166	-0.008711063	-0.7761069	-5.835079e-08	-5.8518594e-07	1
0	-0.00044227808	0.0014584707	0.009410069	0	0	-0.13500017	-0.00044227808	0.0014584708	0.009410069	-1.780217e-13	2.1964793e-15	4.9469232e-17	-1.7576674e-13	-0.00088449655	0.0029167454	-0.98117983	-5.9596125e-08	1.9597825e-07	1
0	-0.0001985968	0.0014809171	0.008082691	0	0	-0.14000009	-0.0001985968	0.0014809171	0.00808269	-1.780253e-13	2.2001238e-15	4.8611793e-17	-1.7576857e-13	-0.0003971668	0.0029616354	-0.9838346	-2.6793689e-08	1.989686e-07	1
0	0.00015658197	0.0015782076	0.0052915765	0	0	-0.14500023	0.00015658197	0.0015782076	0.005291577	-1.7803132e-13	2.206253e-15	4.851757e-17	-1.7577111e-13	0.0003131429	0.0031562035	-0.98941684	2.1044709e-08	2.1209704e-07	1
0	0.00014612221	0.0015650805	0.0050081536	0	0	-0.14999981	0.00014612221	0.0015650807	0.0050081536	-1.7803185e-13	2.2068143e-15	4.860454e-17	-1.7577113e-13	0.00029222475	0.0031299507	-0.9899837	1.9660368e-08	2.1035994e-07	1
0	0.00010927701	0.0015327167	0.0046693026	0	0	-0.15500008	0.00010927702	0.0015327167	0.0046693026	-1.7803256e-13	2.2075464e-15	4.8700394e-17	-1.7577118e-13	0.00021853928	0.0030652273	-0.9906613	1.4741291e-08	2.0604035e-07	1
0	-0.0010453829	0.0009523087	0.0023835986	0	0	-0.15999989	-0.0010453828	0.0009523087	0.0023835986	-1.7803828e-13	2.213276e-15	5.0124094e-17	-1.7577217e-13	-0.0020906255	0.0019044894	-0.9952328	-1.405099e-07	1.2799946e-07	1
0	-0.0010123628	0.0009251266	0.0022125973	0	0	-0.1650002	-0.0010123628	0.00092512654	0.0022125973	-1.7803864e-13	2.2136785e-15	5.0297263e-17	-1.7577208e-13	-0.0020245893	0.0018501288	-0.99557483	-1.3607847e-07	1.2435218e-07	1
0	-0.00098182	0.0008996199	0.00205292	0	0	-0.17000006	-0.00098182	0.0008996199	0.00205292	-1.78039e-13	2.2140569e-15	5.0463947e-17	-1.7577201e-13	-0.001963508	0.0017991189	-0.99589413	-1.3197968e-07	1.2092976e-07	1
0	-0.00095328083	0.0008756955	0.0019041977	0	0	-0.17499986	-0.00095328083	0.00087569543	0.0019041977	-1.7803935e-13	2.214412e-15	5.0623847e-17	-1.7577195e-13	-0.0019064335	0.0017512733	-0.9961916	-1.2814978e-07	1.1771969e-07	1
0	-0.0009263273	0.0008531503	0.001765756	0	0	-0.18000017	-0.0009263273	0.00085315027	0.001765756	-1.7803966e-13	2.2147453e-15	5.0777034e-17	-1.7577187e-13	-0.00185253	0.0017061858	-0.9964684	-1.2453269e-07	1.1469472e-07	1
0	-0.0009007731	0.00083180924	0.001635684	0	0	-0.18499996	-0.0009007731	0.00083180924	0.001635684	-1.7803994e-13	2.21506e-15	5.092517e-17	-1.7577182e-13	-0.001801425	0.0016635066	-0.99672866	-1.2110335e-07	1.1183134e-07	1
0	-0.00087658374	0.00081157056	0.0015112087	0	0	-0.19000006	-0.00087658374	0.00081157056	0.0015112085	-1.7804024e-13	2.215363e-15	5.1071273e-17	-1.7577178e-13	-0.0017530497	0.001623032	-0.9969775	-1.17857205e-07	1.0911589e-07	1
0	-0.00085385866	0.0007924674	0.0013879652	0	0	-0.19499981	-0.00085385866	0.0007924674	0.0013879652	-1.7804054e-13	2.2156643e-15	5.1220843e-17	-1.7577174e-13	-0.0017076025	0.001584828	-0.9972241	-1.1480757e-07	1.0655284e-07	1
0	-0.0008134908	0.00075942127	0.0011281276	0	0	-0.20499994	-0.00081349077	0.00075942127	0.0011281276	-1.7804116e-13	2.2163017e-15	5.1554637e-17	-1.7577164e-13	-0.0016268723	0.0015187404	-0.9977438	-1.0939087e-07	1.0211985e-07	1
0	-0.0006945234	0.00064988167	0.00083858834	0	0	-0.25499967	-0.00069452333	0.00064988167	0.00083858834	-1.7804181e-13	2.2170736e-15	5.187013e-17	-1.7577136e-13	-0.0013889533	0.001299676	-0.99832284	-9.3455895e-08	8.7448115e-08	1
0	-0.00065120024	0.00061016553	0.00072787143	0	0	-0.30500022	-0.00065120024	0.00061016553	0.0007278714	-1.7804207e-13	2.2173705e-15	5.1975973e-17	-1.7577114e-13	-0.0013023127	0.0012202489	-0.9985443	-8.770247e-08	8.21742e-08	1
0	-0.00061561656	0.0005793906	0.0006364839	0	0	-0.3549996	-0.0006156165	0.0005793906	0.0006364839	-1.7804225e-13	2.21761e-15	5.1867424e-17	-1.7577117e-13	-0.00123115	0.0011587031	-0.998727	-8.300285e-08	7.81001e-08	1
0	-0.0004052968	0.00038222724	8.5981024e-05	0	0	-0.40499973	-0.00040529677	0.00038222724	8.5981024e-05	-1.7804376e-13	2.2192123e-15	4.739481e-17	-1.7577691e-13	-0.00081053894	0.00076440297	-0.99982804	-5.4610748e-08	5.1502276e-08	1
0	-0.00035943606	0.00033900124	7.3679716e-05	0	0	-0.45500082	-0.00035943606	0.00033900124	7.367971e-05	-1.7804376e-13	2.219265e-15	4.7376958e-17	-1.7577689e-13	-0.00071882363	0.0006779567	-0.9998527	-4.8455828e-08	4.570099e-08	1
0	-0.000322898	0.0003045491	6.40705e-05	0	0	-0.5050003	-0.000322898	0.0003045491	6.4070504e-05	-1.7804376e-13	2.2193066e-15	4.7361864e-17	-1.7577686e-13	-0.0006457525	0.0006090571	-0.99987185	-4.3552124e-08	4.1077243e-08	1
0	-0.00029309906	0.0002764453	5.6382567e-05	0	0	-0.55500025	-0.00029309903	0.00027644527	5.6382567e-05	-1.7804376e-13	2.2193392e-15	4.7348904e-17	-1.7577686e-13	-0.0005861585	0.0005528533	-0.99988717	-3.955288e-08	3.73055e-08	1
0	-0.00026833423	0.0002530862	5.011631e-05	0	0	-0.60500026	-0.00026833423	0.0002530862	5.0116305e-05	-1.7804375e-13	2.219366e-15	4.7337647e-17	-1.7577683e-13	-0.00053663226	0.00050613825	-0.99989974	-3.622927e-08	3.4170554e-08	1
0	-0.00024742537	0.00023336234	4.492217e-05	0	0	-0.6549993	-0.00024742537	0.00023336234	4.4922177e-05	-1.7804375e-13	2.2193885e-15	4.7327784e-17	-1.7577682e-13	-0.0004948173	0.00046669313	-0.9999101	-3.3423166e-08	3.1523484e-08	1
0	-0.00022953909	0.00021648892	4.055956e-05	0	0	-0.70500124	-0.00022953909	0.0002164889	4.0559564e-05	-1.7804374e-13	2.2194067e-15	4.731906e-17	-1.757768e-13	-0.00045904715	0.00043294852	-0.99991894	-3.1022733e-08	2.9258983e-08	1
0	-0.00021406329	0.00020188882	3.685107e-05	0	0	-0.7549992	-0.00021406329	0.00020188882	3.685107e-05	-1.7804371e-13	2.2194228e-15	4.7311283e-17	-1.7577678e-13	-0.0004280976	0.0004037503	-0.9999263	-2.8945813e-08	2.729958e-08	1
0	-0.00020054178	0.00018913229	3.366807e-05	0	0	-0.80500025	-0.00020054178	0.00018913229	3.366807e-05	-1.7804371e-13	2.219436e-15	4.730431e-17	-1.7577678e-13	-0.00040105643	0.000378239	-0.99993265	-2.7131183e-08	2.5587603e-08	1
0	-0.00018862513	0.00017788941	3.0907657e-05	0	0	-0.85500133	-0.00018862511	0.00017788941	3.0907657e-05	-1.7804368e-13	2.2194482e-15	4.729802e-17	-1.7577675e-13	-0.0003772247	0.00035575472	-0.9999382	-2.5531936e-08	2.4078776e-08	1
0	-0.00017804667	0.00016790928	2.8498864e-05	0	0	-0.9049992	-0.00017804666	0.00016790928	2.8498862e-05	-1.7804367e-13	2.2194584e-15	4.7292314e-17	-1.7577672e-13	-0.0003560692	0.0003357958	-0.99994296	-2.4112294e-08	2.2739425e-08	1
0	-0.00016859031	0.00015898772	2.6382793e-05	0	0	-0.95500135	-0.00016859031	0.00015898772	2.6382791e-05	-1.7804366e-13	2.2194673e-15	4.7287126e-17	-1.7577671e-13	-0.00033715775	0.0003179539	-0.99994725	-2.2843247e-08	2.154215e-08	1
0	-0.00016089862	0.00015173106	2.4684512e-05	0	0	-1	-0.00016089863	0.00015173107	2.4684512e-05	-1.7804366e-13	2.219474e-15	4.728283e-17	-1.7577672e-13	-0.0003217754	0.00030344154	-0.99995065	-2.1811033e-08	2.0568304e-08	1
0	-0.00016948636	0.00015983282	2.6581798e-05	0	0	-0.94999886	-0.00016948636	0.00015983284	2.6581796e-05	-1.7804366e-13	2.2194665e-15	4.7287623e-17	-1.7577671e-13	-0.0003389498	0.000319644	-0.9999468	-2.2963492e-08	2.1655552e-08	1
0	-0.0001790476	0.0001688534	2.8727205e-05	0	0	-0.900001	-0.0001790476	0.0001688534	2.8727205e-05	-1.7804367e-13	2.2194574e-15	4.729286e-17	-1.7577672e-13	-0.00035807097	0.00033768392	-0.99994254	-2.424662e-08	2.2866125e-08	1
0	-0.00018974868	0.00017894928	3.116778e-05	0	0	-0.849999	-0.00018974868	0.00017894928	3.1167776e-05	-1.7804368e-13	2.2194472e-15	4.7298614e-17	-1.7577675e-13	-0.0003794717	0.00035787435	-0.99993765	-2.5682713e-08	2.422101e-08	1
0	-0.00020181129	0.00019032974	3.396304e-05	0	0	-0.8000007	-0.00020181129	0.00019032974	3.3963035e-05	-1.7804371e-13	2.2194353e-15	4.7304967e-17	-1.7577678e-13	-0.00040359533	0.0003806337	-0.99993205	-2.7301553e-08	2.5748301e-08	1
0	-0.00021551075	0.00020325423	3.7197635e-05	0	0	-0.75	-0.00021551074	0.00020325424	3.719763e-05	-1.7804371e-13	2.2194216e-15	4.7312018e-17	-1.7577678e-13	-0.00043099234	0.00040648098	-0.9999256	-2.9140063e-08	2.7482816e-08	1
0	-0.00023120418	0.00021805952	4.096282e-05	0	0	-0.69999945	-0.00023120418	0.0002180595	4.096282e-05	-1.7804374e-13	2.2194048e-15	4.731988e-17	-1.7577682e-13	-0.0004623771	0.00043608958	-0.9999181	-3.1246195e-08	2.946976e-08	1
0	-0.00024936104	0.00023518821	4.5399942e-05	0	0	-0.6500008	-0.000249361	0.00023518821	4.539994e-05	-1.7804375e-13	2.2193864e-15	4.7328717e-17	-1.7577682e-13	-0.0004986884	0.0004703447	-0.99990916	-3.368294e-08	3.1768526e-08	1
0	-0.00027061068	0.00025523314	5.068907e-05	0	0	-0.59999925	-0.00027061068	0.00025523314	5.068907e-05	-1.7804375e-13	2.2193638e-15	4.733871e-17	-1.7577683e-13	-0.00054118485	0.0005104318	-0.9998986	-3.653477e-08	3.445868e-08	1
0	-0.0002958181	0.00027900934	5.708046e-05	0	0	-0.5499998	-0.00029581814	0.00027900934	5.708046e-05	-1.7804376e-13	2.2193364e-15	4.7350115e-17	-1.7577686e-13	-0.0005915963	0.000557981	-0.99988586	-3.9917794e-08	3.7649613e-08	1
0	-0.00032620292	0.0003076648	6.493263e-05	0	0	-0.5	-0.00032620292	0.0003076648	6.493263e-05	-1.7804376e-13	2.2193028e-15	4.736327e-17	-1.7577687e-13	-0.0006523619	0.00061528804	-0.9998702	-4.3995666e-08	4.1495387e-08	1
0	-0.0003635321	0.00034286117	7.4771444e-05	0	0	-0.4500005	-0.0003635321	0.00034286117	7.4771444e-05	-1.7804376e-13	2.2192606e-15	4.7378613e-17	-1.757769e-13	-0.0007270152	0.0006856761	-0.99985045	-4.9005546e-08	4.6219014e-08	1
0	-0.0004105049	0.00038713685	8.7398876e-05	0	0	-0.40000036	-0.0004105049	0.00038713685	8.7398876e-05	-1.7804376e-13	2.2192064e-15	4.7396774e-17	-1.7577691e-13	-0.00082095445	0.0007742215	-0.9998252	-5.530971e-08	5.2161184e-08	1
0	-0.00047140848	0.00044451427	0.00010410209	0	0	-0.34999973	-0.0004714085	0.00044451427	0.00010410209	-1.7804376e-13	2.2191344e-15	4.741866e-17	-1.7577695e-13	-0.00094275345	0.00088896864	-0.99979174	-6.3483526e-08	5.986172e-08	1
0	-0.00055351964	0.00052181544	0.00012707843	0	0	-0.29999962	-0.0005535197	0.0005218155	0.00012707843	-1.7804375e-13	2.219035e-15	4.744563e-17	-1.75777e-13	-0.0011069649	0.0010435608	-0.99974585	-7.4503646e-08	7.023622e-08	1
0	-0.0006702525	0.00063157734	0.00016038935	0	0	-0.25	-0.0006702525	0.00063157734	0.00016038935	-1.7804371e-13	2.2188913e-15	4.7479856e-17	-1.7577705e-13	-0.0013404149	0.0012630698	-0.9996792	-9.017036e-08	8.496725e-08	1
0	-0.0008726376	0.00082147506	0.00021927888	0	0	-0.19499981	-0.00087263755	0.00082147506	0.00021927887	-1.7804357e-13	2.2186362e-15	4.7530473e-17	-1.757771e-13	-0.0017451579	0.0016428398	-0.9995614	-1.17332526e-07	1.1045322e-07	1
0	-0.0008972317	0.0008445098	0.00022650616	0	0	-0.19000006	-0.00089723174	0.0008445098	0.00022650616	-1.7804355e-13	2.2186042e-15	4.7536022e-17	-1.757771e-13	-0.0017943427	0.001688906	-0.999547	-1.2063329e-07	1.1354465e-07	1
0	-0.00092331576	0.00086893514	0.00023417165	0	0	-0.18499996	-0.0009233159	0.0008689352	0.00023417163	-1.7804353e-13	2.2185714e-15	4.7541766e-17	-1.7577712e-13	-0.0018465075	0.0017377534	-0.9995317	-1.2413405e-07	1.1682276e-07	1
0	-0.0009509338	0.0008947882	0.00024230611	0	0	-0.18000017	-0.0009509338	0.0008947881	0.00024230611	-1.7804352e-13	2.2185364e-15	4.754772e-17	-1.7577713e-13	-0.0019017397	0.001789456	-0.99951535	-1.2784066e-07	1.2029247e-07	1
0	-0.0009801837	0.0009221586	0.00025094923	0	0	-0.17499986	-0.0009801838	0.0009221586	0.00025094923	-1.780435e-13	2.2184985e-15	4.7553895e-17	-1.7577713e-13	-0.0019602359	0.0018441933	-0.99949807	-1.317663e-07	1.239658e-07	1
0	-0.0010114539	0.0009514031	0.0002601645	0	0	-0.17000006	-0.0010114539	0.00095140317	0.0002601645	-1.7804345e-13	2.2184583e-15	4.756031e-17	-1.7577712e-13	-0.0020227719	0.0019026784	-0.99947965	-1.3596312e-07	1.278907e-07	1
0	-0.0010446804	0.0009824655	0.00026999152	0	0	-0.1650002	-0.0010446804	0.0009824655	0.00026999152	-1.7804344e-13	2.2184157e-15	4.7566975e-17	-1.7577714e-13	-0.0020892203	0.0019647987	-0.9994599	-1.4042247e-07	1.3205954e-07	1
0	-0.0010801633	0.0010156208	0.000280503	0	0	-0.15999989	-0.0010801633	0.0010156205	0.000280503	-1.7804343e-13	2.21837e-15	4.7573903e-17	-1.7577716e-13	-0.0021601815	0.0020311049	-0.99943894	-1.4518466e-07	1.3650927e-07	1