# t (s)	mx ()	my ()	mz ()	B_extx (T)	B_exty (T)	B_extz (T)	mx ()	my ()	mz ()	E_anis (J)	E_demag (J)	E_exch (J)	E_total (J)	m_zrange1_x ()	m_zrange1_y ()	m_zrange1_z ()	m_zrange0_x ()	m_zrange0_y ()	m_zrange0_z ()
0	0	0	1	0	0	1	0	0	1	-1.7804318e-13	1.7992557e-15	-0	-1.8261403e-13	0	0	1	0	0	1
0	0.0001641466	-0.00015477795	0.9999744	0	0	0.94999886	0.0001641466	-0.00015477795	0.9999744	-1.7804366e-13	1.7991676e-15	1.0086473e-19	-1.8229582e-13	0.0003282918	-0.00030955457	0.9999488	1.4564937e-09	-1.3733702e-09	1
0	0.00017216083	-0.00016233826	0.9999726	0	0	0.900001	0.00017216083	-0.00016233826	0.9999727	-1.7804367e-13	1.7991615e-15	1.05455104e-19	-1.8197733e-13	0.00034432014	-0.00032467506	0.9999452	1.5282919e-09	-1.4410978e-09	1
0	0.00018099743	-0.00017067457	0.9999706	0	0	0.849999	0.00018099743	-0.00017067457	0.9999706	-1.7804367e-13	1.7991547e-15	1.1044158e-19	-1.8165882e-13	0.00036199324	-0.00034134762	0.99994123	1.6074551e-09	-1.5157824e-09	1
0	0.00019078855	-0.00017991175	0.9999684	0	0	0.8000007	0.00019078853	-0.00017991175	0.99996835	-1.7804368e-13	1.799147e-15	1.1587765e-19	-1.8134034e-13	0.00038157537	-0.0003598219	0.9999367	1.6951729e-09	-1.5985364e-09	1
0	0.00020170254	-0.00019020845	0.9999658	0	0	0.75	0.00020170254	-0.00019020845	0.9999658	-1.7804371e-13	1.799138e-15	1.2182682e-19	-1.8102185e-13	0.0004034033	-0.00038041524	0.9999316	1.79295e-09	-1.690782e-09	1
0	0.00021393779	-0.00020175225	0.9999629	0	0	0.69999945	0.00021393778	-0.00020175223	0.9999628	-1.7804371e-13	1.7991278e-15	1.2836564e-19	-1.8070335e-13	0.00042787363	-0.00040350272	0.99992573	1.9025639e-09	-1.7942037e-09	1
0	0.00022775297	-0.0002147873	0.9999595	0	0	0.6500008	0.00022775297	-0.00021478732	0.9999595	-1.7804374e-13	1.7991164e-15	1.3558683e-19	-1.8038488e-13	0.0004555039	-0.0004295727	0.99991906	2.026335e-09	-1.910981e-09	1
0	0.00024347375	-0.00022962119	0.9999557	0	0	0.59999925	0.00024347375	-0.00022962118	0.9999557	-1.7804375e-13	1.799103e-15	1.4360432e-19	-1.800664e-13	0.00048694536	-0.00045924028	0.99991137	2.1671769e-09	-2.0438802e-09	1
0	0.00026152443	-0.00024665453	0.9999511	0	0	0.5499998	0.00026152443	-0.00024665453	0.9999511	-1.7804375e-13	1.7990874e-15	1.5255936e-19	-1.7974789e-13	0.0005230465	-0.00049330684	0.9999023	2.3288946e-09	-2.1964832e-09	1
0	0.0002824639	-0.00026641533	0.9999458	0	0	0.5	0.0002824639	-0.0002664153	0.9999458	-1.7804376e-13	1.799069e-15	1.6263018e-19	-1.7942942e-13	0.0005649253	-0.0005328283	0.99989164	2.516495e-09	-2.3735232e-09	1
0	0.00030704626	-0.00028961588	0.9999395	0	0	0.4500005	0.00030704626	-0.00028961588	0.9999395	-1.7804376e-13	1.799047e-15	1.740445e-19	-1.7911092e-13	0.0006140898	-0.00057922926	0.99987894	2.7367335e-09	-2.5813833e-09	1
0	0.00033631353	-0.00031724086	0.99993175	0	0	0.40000036	0.00033631353	-0.00031724086	0.9999317	-1.7804376e-13	1.79902e-15	1.8709948e-19	-1.7879242e-13	0.0006726241	-0.0006344789	0.9998635	2.9989464e-09	-2.8288856e-09	1
0	0.00037174593	-0.00035068922	0.99992216	0	0	0.34999973	0.00037174593	-0.00035068922	0.99992216	-1.7804376e-13	1.798987e-15	2.0219077e-19	-1.7847393e-13	0.00074348855	-0.0007013753	0.9998445	3.3164025e-09	-3.128556e-09	1
0	0.00041550986	-0.00039200968	0.9999103	0	0	0.29999962	0.00041550986	-0.0003920097	0.9999103	-1.7804376e-13	1.7989455e-15	2.1985926e-19	-1.7815546e-13	0.00083101593	-0.0007840159	0.99982053	3.7084982e-09	-3.4987615e-09	1
0	0.00047094113	-0.00044435752	0.9998948	0	0	0.25	0.00047094113	-0.00044435755	0.99989486	-1.7804376e-13	1.7988917e-15	2.408678e-19	-1.7783699e-13	0.00094187807	-0.00088871113	0.9997897	4.2051234e-09	-3.9677657e-09	1
0	0.0005519001	-0.00052083965	0.9998718	0	0	0.19499981	0.0005519001	-0.00052083965	0.99987185	-1.7804376e-13	1.7988113e-15	2.6918538e-19	-1.7748669e-13	0.0011037955	-0.0010416746	0.9997437	4.93047e-09	-4.653e-09	1
0	0.0005606504	-0.00052911	0.99986935	0	0	0.19000006	0.0005606504	-0.00052911	0.99986935	-1.7804376e-13	1.7988024e-15	2.7209928e-19	-1.7745485e-13	0.0011212958	-0.0010582153	0.9997387	5.008869e-09	-4.727104e-09	1
0	0.0005697056	-0.0005376657	0.9998668	0	0	0.18499996	0.0005697056	-0.0005376657	0.9998668	-1.7804375e-13	1.7987935e-15	2.750785e-19	-1.7742299e-13	0.001139406	-0.0010753266	0.99973345	5.0899946e-09	-4.803754e-09	1
0	0.00057904713	-0.0005464931	0.9998641	0	0	0.18000017	0.00057904713	-0.0005464931	0.9998641	-1.7804375e-13	1.798784e-15	2.7812555e-19	-1.7739114e-13	0.001158089	-0.0010929813	0.99972814	5.173691e-09	-4.8828426e-09	1
0	0.000588695	-0.0005556109	0.99986124	0	0	0.17499986	0.000588695	-0.0005556109	0.99986124	-1.7804375e-13	1.7987742e-15	2.8124283e-19	-1.7735931e-13	0.0011773846	-0.0011112168	0.99972254	5.260132e-09	-4.9645337e-09	1
0	0.00059867214	-0.0005650403	0.99985844	0	0	0.17000006	0.00059867214	-0.0005650403	0.9998584	-1.7804375e-13	1.798764e-15	2.844329e-19	-1.7732746e-13	0.0011973388	-0.0011300754	0.9997168	5.3495217e-09	-5.0490154e-09	1
0	0.0006089917	-0.0005747942	0.99985534	0	0	0.1650002	0.0006089917	-0.00057479425	0.9998554	-1.7804375e-13	1.7987537e-15	2.8769892e-19	-1.7729562e-13	0.001217978	-0.0011495834	0.9997108	5.441979e-09	-5.1364033e-09	1
0	0.0006196707	-0.0005848884	0.9998523	0	0	0.15999989	0.0006196707	-0.0005848884	0.9998523	-1.7804374e-13	1.7987429e-15	2.9104347e-19	-1.7726378e-13	0.0012393359	-0.0011697717	0.9997046	5.537653e-09	-5.226847e-09	1
0	0.0006307337	-0.0005953458	0.999849	0	0	0.15500008	0.0006307337	-0.0005953458	0.999849	-1.7804372e-13	1.7987316e-15	2.9446955e-19	-1.7723193e-13	0.0012614618	-0.0011906862	0.99969816	5.6367777e-09	-5.320537e-09	1
0	0.0006421994	-0.0006061844	0.99984574	0	0	0.14999981	0.0006421994	-0.0006061844	0.9998457	-1.7804372e-13	1.7987198e-15	2.979806e-19	-1.7720007e-13	0.0012843931	-0.0012123634	0.9996914	5.739502e-09	-5.417647e-09	1
0	0.0006540895	-0.00061742467	0.9998423	0	0	0.14500023	0.0006540895	-0.00061742467	0.9998423	-1.7804371e-13	1.7987077e-15	3.015799e-19	-1.7716822e-13	0.0013081729	-0.0012348437	0.9996846	5.846032e-09	-5.518354e-09	1
0	0.0006664246	-0.0006290871	0.99983865	0	0	0.14000009	0.0006664246	-0.0006290871	0.9998386	-1.7804371e-13	1.7986952e-15	3.0527147e-19	-1.7713638e-13	0.0013328432	-0.0012581686	0.9996773	5.956544e-09	-5.6228413e-09	1
0	0.00067922473	-0.00064119	0.9998349	0	0	0.13500017	0.00067922473	-0.00064119004	0.9998349	-1.7804368e-13	1.7986819e-15	3.0905861e-19	-1.771045e-13	0.0013584433	-0.0012823743	0.99966985	6.0712306e-09	-5.7312786e-09	1
0	0.00069254666	-0.0006537867	0.999831	0	0	0.13000007	0.0006925466	-0.0006537867	0.999831	-1.7804368e-13	1.7986681e-15	3.1294595e-19	-1.7707267e-13	0.001385087	-0.0013075673	0.99966204	6.19059e-09	-5.844138e-09	1
0	0.00070638966	-0.00066687714	0.99982697	0	0	0.125	0.00070638966	-0.0006668771	0.999827	-1.7804368e-13	1.798654e-15	3.1693756e-19	-1.7704084e-13	0.001412773	-0.0013337483	0.9996538	6.314611e-09	-5.9614194e-09	1
0	0.00072080665	-0.0006805104	0.99982274	0	0	0.11999989	0.0007208066	-0.00068051036	0.99982274	-1.7804367e-13	1.798639e-15	3.21038e-19	-1.7700897e-13	0.0014416066	-0.0013610146	0.9996455	6.4437815e-09	-6.0835674e-09	1
0	0.00073580473	-0.00069469644	0.9998183	0	0	0.11499984	0.00073580473	-0.00069469644	0.9998182	-1.7804366e-13	1.7986234e-15	3.2525254e-19	-1.7697713e-13	0.0014716029	-0.0013893867	0.99963653	6.578155e-09	-6.21067e-09	1
0	0.00075144897	-0.00070949394	0.99981374	0	0	0.10999988	0.000751449	-0.000709494	0.9998137	-1.7804366e-13	1.7986075e-15	3.295861e-19	-1.7694529e-13	0.0015028913	-0.0014189816	0.99962735	6.7183192e-09	-6.3432477e-09	1
0	0.00076777313	-0.0007249359	0.99980885	0	0	0.10499983	0.0007677732	-0.0007249359	0.99980885	-1.7804366e-13	1.7985904e-15	3.3404422e-19	-1.7691346e-13	0.0015355395	-0.0014498655	0.9996176	6.8645765e-09	-6.4815966e-09	1
0	0.0007848198	-0.00074106304	0.9998038	0	0	0.10000009	0.0007848198	-0.000741063	0.9998038	-1.7804364e-13	1.7985726e-15	3.3863309e-19	-1.7688161e-13	0.0015696326	-0.0014821193	0.9996075	7.017304e-09	-6.626092e-09	1
0	0.00080264057	-0.00075792393	0.9997985	0	0	0.09500003	0.00080264045	-0.00075792393	0.9997985	-1.7804364e-13	1.7985542e-15	3.4335898e-19	-1.7684977e-13	0.0016052738	-0.001515841	0.99959695	7.1769737e-09	-6.7771566e-09	1
0	0.00082128664	-0.0007755679	0.9997929	0	0	0.090000086	0.00082128664	-0.0007755679	0.9997929	-1.7804362e-13	1.7985347e-15	3.482286e-19	-1.7681792e-13	0.0016425659	-0.0015511288	0.99958587	7.344033e-09	-6.9352373e-09	1
0	0.00084081956	-0.0007940533	0.9997871	0	0	0.08500003	0.00084081956	-0.0007940533	0.9997871	-1.7804362e-13	1.7985142e-15	3.5324937e-19	-1.7678606e-13	0.0016816317	-0.0015880995	0.9995742	7.519035e-09	-7.1008603e-09	1
0	0.0008613005	-0.00081343786	0.99978095	0	0	0.079999946	0.00086130056	-0.00081343786	0.99978095	-1.7804357e-13	1.7984926e-15	3.5842928e-19	-1.7675421e-13	0.0017225933	-0.0016268683	0.999562	7.7025355e-09	-7.274533e-09	1
0	0.0008828069	-0.00083379546	0.99977463	0	0	0.074999906	0.0008828069	-0.00083379546	0.99977463	-1.7804356e-13	1.7984701e-15	3.6377653e-19	-1.7672238e-13	0.0017656058	-0.0016675834	0.99954915	7.895224e-09	-7.456926e-09	1
0	0.00090541155	-0.00085519534	0.9997678	0	0	0.070000045	0.0009054116	-0.0008551953	0.9997679	-1.7804353e-13	1.7984462e-15	3.6930019e-19	-1.7669053e-13	0.0018108151	-0.0017103829	0.99953556	8.0977465e-09	-7.648659e-09	1
0	0.0009292046	-0.000877723	0.99976075	0	0	0.065000035	0.0009292045	-0.0008777231	0.99976075	-1.7804353e-13	1.7984212e-15	3.750104e-19	-1.766587e-13	0.0018584006	-0.0017554383	0.99952126	8.310923e-09	-7.850495e-09	1
0	0.00095427845	-0.00090146705	0.9997532	0	0	0.059999947	0.00095427845	-0.00090146705	0.9997532	-1.7804352e-13	1.7983947e-15	3.8091734e-19	-1.7662686e-13	0.0019085483	-0.0018029262	0.99950624	8.5355705e-09	-8.06323e-09	1
0	0.0009807411	-0.00092653016	0.99974513	0	0	0.05499994	0.0009807412	-0.00092653016	0.99974513	-1.780435e-13	1.7983666e-15	3.8703285e-19	-1.7659501e-13	0.0019614738	-0.0018530521	0.9994904	8.772669e-09	-8.28779e-09	1
0	0.0010087079	-0.0009530219	0.99973667	0	0	0.050000045	0.0010087079	-0.00095302187	0.9997367	-1.7804345e-13	1.7983371e-15	3.9336907e-19	-1.7656314e-13	0.0020174065	-0.0019060355	0.99947345	9.023231e-09	-8.525139e-09	1
0	0.0010383236	-0.0009810814	0.99972785	0	0	0.045000043	0.0010383236	-0.0009810814	0.99972785	-1.7804344e-13	1.7983058e-15	3.9994015e-19	-1.7653132e-13	0.0020766384	-0.001962154	0.99945563	9.288577e-09	-8.776539e-09	1
0	0.0010697177	-0.0010108297	0.99971837	0	0	0.039999973	0.0010697177	-0.0010108297	0.99971837	-1.7804343e-13	1.7982721e-15	4.0676007e-19	-1.7649948e-13	0.0021394258	-0.00202165	0.9994367	9.569854e-09	-9.043071e-09	1
0	0.001103059	-0.0010424304	0.9997082	0	0	0.035000023	0.0011030589	-0.0010424304	0.99970824	-1.780434e-13	1.7982365e-15	4.1384536e-19	-1.7646765e-13	0.0022061083	-0.0020848517	0.9994165	9.8685735e-09	-9.326197e-09	1
0	0.0011385728	-0.0010760962	0.9996975	0	0	0.029999973	0.0011385728	-0.0010760962	0.99969745	-1.7804337e-13	1.7981986e-15	4.2121427e-19	-1.764358e-13	0.0022771356	-0.0021521826	0.999395	1.0186766e-08	-9.627826e-09	1
0	0.0011764183	-0.0011119808	0.999686	0	0	0.025000023	0.0011764183	-0.0011119808	0.999686	-1.7804333e-13	1.7981582e-15	4.2888526e-19	-1.7640392e-13	0.002352826	-0.0022239515	0.999372	1.0525837e-08	-9.949337e-09	1
0	0.0012168846	-0.0011503581	0.9996738	0	0	0.019999987	0.0012168846	-0.0011503581	0.99967366	-1.7804329e-13	1.7981148e-15	4.3688046e-19	-1.7637211e-13	0.0024337582	-0.0023007062	0.99934745	1.08883995e-08	-1.029318e-08	1
0	0.0012602002	-0.0011914489	0.9996606	0	0	0.014999987	0.0012602002	-0.001191449	0.9996605	-1.7804324e-13	1.7980686e-15	4.45223e-19	-1.7634028e-13	0.002520389	-0.0023828873	0.99932116	1.1276484e-08	-1.0661333e-08	1
0	0.0013067275	-0.0012355975	0.9996464	0	0	0.009999993	0.0013067274	-0.0012355975	0.9996464	-1.7804321e-13	1.7980186e-15	4.539396e-19	-1.763084e-13	0.0026134434	-0.002471184	0.99929273	1.1693349e-08	-1.1056885e-08	1
0	0.0013568297	-0.0012831511	0.9996311	0	0	0.0049999966	0.0013568297	-0.001283151	0.9996311	-1.7804318e-13	1.7979644e-15	4.6305927e-19	-1.762766e-13	0.0027136472	-0.0025662903	0.9992622	1.2142236e-08	-1.1482948e-08	1
0	0.0014108538	-0.0013344424	0.99961466	0	0	-9.887924e-17	0.0014108537	-0.0013344424	0.99961466	-1.7804311e-13	1.7979062e-15	4.72614e-19	-1.7624473e-13	0.002821695	-0.0026688727	0.99922925	1.2626266e-08	-1.194249e-08	1
0	0.0014694824	-0.0013901225	0.9995967	0	0	-0.0049999966	0.0014694824	-0.0013901226	0.9995967	-1.7804307e-13	1.7978433e-15	4.8264153e-19	-1.7621291e-13	0.0029389518	-0.0027802326	0.99919355	1.3151557e-08	-1.244136e-08	1
0	0.0015329644	-0.0014504272	0.99957734	0	0	-0.009999993	0.0015329643	-0.0014504272	0.99957734	-1.78043e-13	1.7977745e-15	4.931817e-19	-1.7618105e-13	0.003065915	-0.0029008414	0.9991547	1.3720324e-08	-1.2981662e-08	1
0	0.0016023669	-0.0015163803	0.9995561	0	0	-0.014999987	0.0016023669	-0.0015163803	0.9995561	-1.7804294e-13	1.7976997e-15	5.042829e-19	-1.7614923e-13	0.0032047192	-0.0030327467	0.99911225	1.4342143e-08	-1.3572569e-08	1
0	0.001678469	-0.0015887448	0.9995328	0	0	-0.019999987	0.001678469	-0.0015887449	0.9995328	-1.7804286e-13	1.7976174e-15	5.159951e-19	-1.7611738e-13	0.003356923	-0.0031774754	0.9990658	1.5023986e-08	-1.4220922e-08	1
0	0.0017619893	-0.0016681843	0.99950737	0	0	-0.025000023	0.0017619893	-0.0016681844	0.99950737	-1.7804277e-13	1.7975272e-15	5.283814e-19	-1.7608555e-13	0.003523963	-0.0033363542	0.9990146	1.5772287e-08	-1.4932667e-08	1
0	0.0018543492	-0.0017560695	0.99947906	0	0	-0.029999973	0.0018543492	-0.0017560695	0.99947906	-1.780427e-13	1.7974272e-15	5.4151125e-19	-1.7605371e-13	0.0037086816	-0.003512123	0.9989582	1.6599783e-08	-1.5720078e-08	1
0	0.0019568736	-0.0018536767	0.9994476	0	0	-0.035000023	0.0019568736	-0.0018536767	0.9994476	-1.780426e-13	1.797316e-15	5.5546403e-19	-1.7602189e-13	0.0039137295	-0.0037073365	0.9988953	1.7518355e-08	-1.65946e-08	1
0	0.002071288	-0.001962666	0.9994126	0	0	-0.039999973	0.002071288	-0.0019626662	0.9994126	-1.7804246e-13	1.797192e-15	5.703341e-19	-1.7599004e-13	0.0041425573	-0.003925314	0.99882525	1.8543455e-08	-1.7571091e-08	1
0	0.0022001632	-0.0020854825	0.99937314	0	0	-0.045000043	0.0022001632	-0.0020854825	0.99937314	-1.7804231e-13	1.7970518e-15	5.8623593e-19	-1.759582e-13	0.004400307	-0.004170947	0.9987463	1.9698113e-08	-1.8671473e-08	1
0	0.0023458034	-0.002224372	0.9993285	0	0	-0.050000045	0.0023458034	-0.002224372	0.99932855	-1.7804216e-13	1.7968938e-15	6.0329503e-19	-1.7592637e-13	0.0046915854	-0.0044487244	0.998657	2.1002988e-08	-1.9915856e-08	1
0	0.0025120503	-0.0023829734	0.9992775	0	0	-0.05499994	0.0025120506	-0.0023829737	0.9992775	-1.7804198e-13	1.796713e-15	6.2167715e-19	-1.7589455e-13	0.005024078	-0.0047659255	0.99855494	2.2492477e-08	-2.1336858e-08	1
0	0.0027044166	-0.0025666978	0.9992186	0	0	-0.059999947	0.0027044164	-0.0025666978	0.9992186	-1.7804177e-13	1.7965042e-15	6.4157074e-19	-1.7586273e-13	0.0054088086	-0.0051333727	0.9984373	2.4215993e-08	-2.2982936e-08	1
0	0.0029289331	-0.0027812605	0.99915	0	0	-0.065000035	0.0029289331	-0.0027812605	0.99915	-1.7804151e-13	1.7962606e-15	6.632188e-19	-1.7583088e-13	0.00585784	-0.005562496	0.9983	2.622756e-08	-2.4905326e-08	1
0	0.0031939219	-0.0030347041	0.999069	0	0	-0.070000045	0.0031939219	-0.0030347041	0.999069	-1.7804123e-13	1.7959737e-15	6.8691875e-19	-1.7579906e-13	0.0063878144	-0.0060693813	0.9981379	2.8601724e-08	-2.7176066e-08	1
0	0.0035098845	-0.0033370913	0.99897194	0	0	-0.074999906	0.0035098845	-0.0033370918	0.99897194	-1.7804086e-13	1.7956292e-15	7.1305016e-19	-1.7576726e-13	0.0070197377	-0.0066741533	0.99794394	3.14326e-08	-2.9885314e-08	1
0	0.0038997154	-0.0037105754	0.99885315	0	0	-0.079999946	0.0038997154	-0.0037105756	0.99885315	-1.7804042e-13	1.7952073e-15	7.4213543e-19	-1.7573542e-13	0.0077993963	-0.007421118	0.9977063	3.49253e-08	-3.3231558e-08	1
0	0.004385837	-0.004176664	0.9987047	0	0	-0.08500003	0.004385837	-0.004176664	0.9987047	-1.7803983e-13	1.79468e-15	7.74849e-19	-1.7570362e-13	0.008771635	-0.00835329	0.9974094	3.9280707e-08	-3.740749e-08	1
0	0.0050161984	-0.004781587	0.9985131	0	0	-0.090000086	0.0050161984	-0.0047815866	0.9985131	-1.7803909e-13	1.7940001e-15	8.1216925e-19	-1.7567183e-13	0.01003235	-0.009563132	0.9970262	4.492843e-08	-4.2827303e-08	1
0	0.005862631	-0.0055941986	0.99825615	0	0	-0.09500003	0.005862631	-0.0055941977	0.99825615	-1.7803807e-13	1.7930879e-15	8.555444e-19	-1.7564002e-13	0.011725208	-0.011188347	0.99651235	5.2512018e-08	-5.01079e-08	1
0	0.0070588943	-0.0067422315	0.9978927	0	0	-0.10000009	0.0070588943	-0.0067422315	0.99789274	-1.780366e-13	1.791798e-15	9.072738e-19	-1.7560823e-13	0.014117725	-0.0134844035	0.99578536	6.322988e-08	-6.0393674e-08	1
0	0.008881332	-0.008488047	0.997335	0	0	-0.10499983	0.008881332	-0.008488047	0.997335	-1.780343e-13	1.789821e-15	9.714709e-19	-1.7557643e-13	0.017762586	-0.016976018	0.99467003	7.955786e-08	-7.603522e-08	1
0	0.012275843	-0.011717438	0.9963146	0	0	-0.10999988	0.012275843	-0.011717438	0.9963145	-1.7803009e-13	1.7862133e-15	1.0578449e-18	-1.7554469e-13	0.024551576	-0.023434771	0.992629	1.09970436e-07	-1.04968606e-07	1
0	0.020572374	-0.019324236	0.9936328	0	0	-0.11499984	0.020572374	-0.019324234	0.99363285	-1.7801894e-13	1.7768308e-15	1.2036655e-18	-1.75513e-13	0.041144565	-0.038648296	0.9872656	1.8430019e-07	-1.7311962e-07	1
0	0.02305688	-0.021597518	0.9923801	0	0	-0.11999989	0.02305688	-0.021597518	0.9923801	-1.7801379e-13	1.772501e-15	1.3017472e-18	-1.7548139e-13	0.04611355	-0.04319484	0.98476017	2.0655868e-07	-1.9348607e-07	1
0	0.023622625	-0.02211826	0.9920628	0	0	-0.125	0.023622625	-0.02211826	0.9920628	-1.7801248e-13	1.7714093e-15	1.3319056e-18	-1.754498e-13	0.04724504	-0.044236317	0.9841256	2.1162742e-07	-1.9815164e-07	1
0	0.024111478	-0.022570906	0.9917716	0	0	-0.13000007	0.024111478	-0.022570906	0.9917716	-1.7801129e-13	1.7704084e-15	1.361288e-18	-1.7541823e-13	0.048222743	-0.04514161	0.98354304	2.1600735e-07	-2.0220716e-07	1
0	0.024698788	-0.023116415	0.9914075	0	0	-0.13500017	0.024698788	-0.023116415	0.9914075	-1.7800983e-13	1.7691603e-15	1.3982366e-18	-1.753867e-13	0.049397353	-0.046232626	0.98281515	2.2126936e-07	-2.0709467e-07	1
0	0.02561517	-0.023968888	0.9908204	0	0	-0.14000009	0.02561517	-0.023968888	0.99082035	-1.7800742e-13	1.7671519e-15	1.4556928e-18	-1.7535517e-13	0.051230114	-0.047937557	0.9816408	2.2947943e-07	-2.1473224e-07	1
0	0.026644072	-0.024926746	0.9901373	0	0	-0.14500023	0.026644073	-0.024926746	0.9901373	-1.7800467e-13	1.7648234e-15	1.5197352e-18	-1.7532377e-13	0.0532879	-0.04985327	0.98027456	2.3869762e-07	-2.2331399e-07	1
0	0.027884923	-0.026082423	0.9892806	0	0	-0.14999981	0.027884923	-0.026082423	0.9892806	-1.7800118e-13	1.7619162e-15	1.5968695e-18	-1.752924e-13	0.055769596	-0.05216461	0.9785613	2.4981463e-07	-2.33668e-07	1
0	0.029301988	-0.02740254	0.9882588	0	0	-0.15500008	0.029301986	-0.02740254	0.9882588	-1.7799708e-13	1.7584682e-15	1.6852972e-18	-1.7526115e-13	0.058603708	-0.054804835	0.9765176	2.6251035e-07	-2.454953e-07	1
0	0.030959886	-0.028947305	0.9870037	0	0	-0.15999989	0.030959884	-0.028947305	0.9870036	-1.7799203e-13	1.7542618e-15	1.7897337e-18	-1.7523002e-13	0.06191949	-0.057894345	0.97400737	2.7736374e-07	-2.5933522e-07	1
0	0.033045724	-0.03089107	0.9853321	0	0	-0.1650002	0.033045724	-0.030891068	0.98533213	-1.7798537e-13	1.7487115e-15	1.9228535e-18	-1.751991e-13	0.06609116	-0.06178186	0.97066426	2.960511e-07	-2.7674983e-07	1
0	-0.00064601464	0.00055279245	0.00062017585	0	0	-0.17000006	-0.00064601464	0.00055279245	0.0006201758	-1.7804222e-13	1.7961332e-15	5.57994e-18	-1.7623984e-13	-0.0012920233	0.0011055799	-0.9987596	-5.790611e-09	4.951352e-09	1
0	-0.0006259185	0.00057993125	0.00026827725	0	0	-0.17499986	-0.00062591856	0.0005799313	0.0002682772	-1.7804325e-13	1.797005e-15	4.469254e-18	-1.7624148e-13	-0.0012518315	0.0011598574	-0.99946344	-5.6113842e-09	5.198358e-09	1
0	-0.0005801271	0.00054750685	0.00013624893	0	0	-0.18000017	-0.00058012706	0.00054750685	0.00013624893	-1.7804375e-13	1.7973865e-15	3.4233374e-18	-1.7624278e-13	-0.001160249	0.0010950089	-0.99972755	-5.200267e-09	4.9078674e-09	1
0	-0.0005707573	0.000538665	0.00013355006	0	0	-0.18499996	-0.0005707573	0.000538665	0.00013355007	-1.7804375e-13	1.7973963e-15	3.4203013e-18	-1.7624277e-13	-0.0011415095	0.0010773251	-0.9997329	-5.1165068e-09	4.8288267e-09	1
0	-0.0005616816	0.0005300887	0.00013094037	0	0	-0.19000006	-0.0005616816	0.0005300887	0.00013094037	-1.7804376e-13	1.7974056e-15	3.4173309e-18	-1.7624278e-13	-0.001123358	0.0010601726	-0.99973816	-5.0353743e-09	4.752161e-09	1
0	-0.00055288733	0.0005217789	0.00012841626	0	0	-0.19499981	-0.00055288733	0.0005217789	0.00012841626	-1.7804376e-13	1.797414e-15	3.4144256e-18	-1.7624277e-13	-0.0011057697	0.0010435532	-0.99974316	-4.9567626e-09	4.677877e-09	1
0	-0.00053610356	0.00050592073	0.0001236106	0	0	-0.20499994	-0.0005361035	0.00050592073	0.0001236106	-1.7804376e-13	1.797431e-15	3.4088014e-18	-1.7624276e-13	-0.0010722023	0.0010118369	-0.99975276	-4.806727e-09	4.5361164e-09	1
0	-0.00046544042	0.00043916778	0.00010359908	0	0	-0.25499967	-0.00046544045	0.00043916778	0.00010359908	-1.7804378e-13	1.797501e-15	3.383915e-18	-1.7624273e-13	-0.00093087676	0.0008783316	-0.9997928	-4.1750496e-09	3.9393924e-09	1
0	-0.0004112288	0.00038797027	8.853245e-05	0	0	-0.30500022	-0.00041122877	0.00038797027	8.8532455e-05	-1.7804378e-13	1.7975534e-15	3.3633373e-18	-1.7624269e-13	-0.0008224539	0.00077593705	-0.99982285	-3.690439e-09	3.481722e-09	1
0	-0.0003683118	0.0003474493	7.682476e-05	0	0	-0.3549996	-0.0003683118	0.00034744933	7.682476e-05	-1.7804376e-13	1.7975943e-15	3.3459985e-18	-1.7624265e-13	-0.0007366203	0.0006948955	-0.9998463	-3.3067946e-09	3.119494e-09	1
0	-0.00033351127	0.00031459657	6.750384e-05	0	0	-0.40499973	-0.00033351127	0.00031459663	6.750384e-05	-1.7804376e-13	1.7976267e-15	3.3311663e-18	-1.7624263e-13	-0.0006670196	0.00062919036	-0.99986494	-2.9957063e-09	2.8258158e-09	1
0	-0.0003047058	0.00028740772	5.9926817e-05	0	0	-0.45500082	-0.0003047058	0.00028740772	5.9926817e-05	-1.7804376e-13	1.7976527e-15	3.3183194e-18	-1.7624262e-13	-0.0006094089	0.0005748129	-0.9998802	-2.7382092e-09	2.5827698e-09	1
0	-0.00028047836	0.00026454218	5.3667904e-05	0	0	-0.5050003	-0.00028047833	0.00026454218	5.36679e-05	-1.7804376e-13	1.7976743e-15	3.3070745e-18	-1.762426e-13	-0.00056095415	0.0005290819	-0.9998927	-2.5216356e-09	2.3783673e-09	1
0	-0.00025982343	0.00024505	4.841998e-05	0	0	-0.55500025	-0.00025982343	0.00024505	4.841998e-05	-1.7804375e-13	1.7976923e-15	3.2971446e-18	-1.7624259e-13	-0.00051964447	0.00049009785	-0.99990314	-2.3370013e-09	2.2041253e-09	1
0	-0.0002419972	0.00022822857	4.3969598e-05	0	0	-0.60500026	-0.0002419972	0.00022822857	4.3969598e-05	-1.7804375e-13	1.7977078e-15	3.2883072e-18	-1.7624258e-13	-0.00048399216	0.00045645513	-0.999912	-2.1776516e-09	2.0537594e-09	1
0	-0.00022646025	0.0002135682	4.015359e-05	0	0	-0.6549993	-0.00022646025	0.0002135682	4.015359e-05	-1.7804374e-13	1.797721e-15	3.2803899e-18	-1.7624257e-13	-0.00045291847	0.00042713445	-0.99991965	-2.038767e-09	1.9227075e-09	1
0	-0.00021279733	0.00020067678	3.6851816e-05	0	0	-0.70500124	-0.00021279733	0.00020067679	3.6851816e-05	-1.7804371e-13	1.7977328e-15	3.2732544e-18	-1.7624254e-13	-0.00042559273	0.00040135175	-0.99992627	-1.916634e-09	1.8074702e-09	1
0	-0.00020068638	0.00018925036	3.397012e-05	0	0	-0.7549992	-0.00020068641	0.00018925038	3.397012e-05	-1.7804371e-13	1.7977425e-15	3.2667896e-18	-1.7624254e-13	-0.000401371	0.00037849904	-0.99993205	-1.8083779e-09	1.7053325e-09	1
0	-0.00018988177	0.00017905666	3.143996e-05	0	0	-0.80500025	-0.00018988177	0.00017905667	3.143996e-05	-1.7804368e-13	1.797751e-15	3.260905e-18	-1.7624251e-13	-0.00037976183	0.00035811172	-0.9999372	-1.7117969e-09	1.6142129e-09	1
0	-0.0001801788	0.00016990284	2.9203688e-05	0	0	-0.85500133	-0.0001801788	0.00016990284	2.9203691e-05	-1.7804367e-13	1.7977588e-15	3.2555254e-18	-1.7624248e-13	-0.00036035597	0.00033980413	-0.9999416	-1.6250644e-09	1.5323866e-09	1
0	-0.00017141942	0.00016163937	2.7212462e-05	0	0	-0.9049992	-0.00017141942	0.00016163937	2.7212462e-05	-1.7804367e-13	1.7977656e-15	3.2505888e-18	-1.7624248e-13	-0.0003428373	0.00032327732	-0.99994564	-1.5467657e-09	1.4585244e-09	1
0	-0.0001634722	0.00015414231	2.543407e-05	0	0	-0.95500135	-0.0001634722	0.00015414231	2.5434074e-05	-1.7804366e-13	1.797772e-15	3.2460422e-18	-1.7624247e-13	-0.0003269429	0.00030828323	-0.99994916	-1.4757296e-09	1.3915076e-09	1
0	-0.00015692417	0.00014796536	2.3985896e-05	0	0	-1	-0.00015692417	0.00014796537	2.3985896e-05	-1.7804366e-13	1.7977766e-15	3.242248e-18	-1.7624248e-13	-0.00031384692	0.00029592944	-0.999952	-1.4171996e-09	1.336295e-09	1
0	-0.00016423035	0.00015485699	2.5601708e-05	0	0	-0.94999886	-0.00016423033	0.000154857	2.5601708e-05	-1.7804366e-13	1.7977713e-15	3.24648e-18	-1.7624247e-13	-0.00032845922	0.00030971257	-0.9999488	-1.4825063e-09	1.3978972e-09	1
0	-0.00017225328	0.00016242548	2.7401848e-05	0	0	-0.900001	-0.00017225328	0.00016242548	2.7401846e-05	-1.7804367e-13	1.7977652e-15	3.2510632e-18	-1.7624248e-13	-0.000344505	0.0003248495	-0.9999452	-1.5542218e-09	1.4655482e-09	1
0	-0.00018109981	0.00017077115	2.9414603e-05	0	0	-0.849999	-0.00018109981	0.00017077115	2.9414603e-05	-1.7804367e-13	1.7977582e-15	3.2560418e-18	-1.7624248e-13	-0.00036219798	0.00034154076	-0.9999412	-1.6332964e-09	1.5401517e-09	1
0	-0.00019090307	0.00018001974	3.167896e-05	0	0	-0.8000007	-0.00019090307	0.00018001974	3.167896e-05	-1.7804368e-13	1.7977501e-15	3.2614691e-18	-1.7624251e-13	-0.0003818044	0.00036003784	-0.99993664	-1.7209267e-09	1.6228185e-09	1
0	-0.00020182978	0.00019032849	3.424258e-05	0	0	-0.75	-0.00020182978	0.00019032849	3.424258e-05	-1.7804371e-13	1.7977412e-15	3.267408e-18	-1.7624254e-13	-0.00040365773	0.00038065526	-0.9999315	-1.8185973e-09	1.714968e-09	1
0	-0.00021407923	0.00020188579	3.7161386e-05	0	0	-0.69999945	-0.00021407922	0.00020188578	3.7161386e-05	-1.7804371e-13	1.7977315e-15	3.2739354e-18	-1.7624254e-13	-0.00042815655	0.00040376978	-0.99992573	-1.9280921e-09	1.8182792e-09	1
0	-0.00022791474	0.00021493995	4.0509167e-05	0	0	-0.6500008	-0.00022791473	0.00021493994	4.0509167e-05	-1.7804374e-13	1.79772e-15	3.2811436e-18	-1.7624257e-13	-0.0004558274	0.00042987795	-0.99991894	-2.0517672e-09	1.9349704e-09	1
0	-0.00024365935	0.00022979626	4.4382385e-05	0	0	-0.59999925	-0.00024365935	0.00022979628	4.438239e-05	-1.7804375e-13	1.7977067e-15	3.289146e-18	-1.7624258e-13	-0.00048731652	0.00045959046	-0.9999113	-2.1925082e-09	2.067772e-09	1
0	-0.00026173954	0.00024685738	4.890544e-05	0	0	-0.5499998	-0.00026173954	0.00024685738	4.890544e-05	-1.7804375e-13	1.797691e-15	3.2980839e-18	-1.7624259e-13	-0.0005234767	0.00049371255	-0.99990225	-2.3541267e-09	2.2202822e-09	1
0	-0.00028271473	0.00026665194	5.424174e-05	0	0	-0.5	-0.00028271473	0.00026665194	5.4241733e-05	-1.7804376e-13	1.7976726e-15	3.3081347e-18	-1.762426e-13	-0.000565427	0.00053330144	-0.99989146	-2.5416256e-09	2.3972269e-09	1
0	-0.0003073425	0.0002898954	6.0618775e-05	0	0	-0.4500005	-0.0003073425	0.0002898954	6.061878e-05	-1.7804376e-13	1.7976504e-15	3.3195252e-18	-1.7624262e-13	-0.0006146823	0.00057978823	-0.9998789	-2.761778e-09	2.6050067e-09	1
0	-0.0003366696	0.00031757675	6.834698e-05	0	0	-0.40000036	-0.0003366696	0.00031757675	6.834697e-05	-1.7804376e-13	1.7976235e-15	3.3325515e-18	-1.7624263e-13	-0.0006733361	0.0006351507	-0.9998633	-3.023937e-09	2.8524518e-09	1
0	-0.00037217425	0.00035109374	7.787283e-05	0	0	-0.34999973	-0.00037217428	0.00035109374	7.787283e-05	-1.7804376e-13	1.7975903e-15	3.347608e-18	-1.7624265e-13	-0.00074434513	0.00070218433	-0.99984425	-3.3413208e-09	3.1520715e-09	1
0	-0.00041604653	0.0003925166	8.986366e-05	0	0	-0.29999962	-0.00041604653	0.0003925166	8.9863664e-05	-1.7804378e-13	1.7975488e-15	3.3652332e-18	-1.7624267e-13	-0.00083208934	0.0007850296	-0.9998203	-3.7335055e-09	3.522363e-09	1
0	-0.00047163267	0.00044501046	0.000105343155	0	0	-0.25	-0.00047163267	0.0004450105	0.000105343155	-1.7804376e-13	1.797495e-15	3.3861865e-18	-1.7624271e-13	-0.00094326114	0.00089001696	-0.9997893	-4.2304005e-09	3.9916195e-09	1
0	-0.00055284775	0.0005217353	0.00012841182	0	0	-0.19499981	-0.00055284775	0.0005217353	0.0001284118	-1.7804376e-13	1.7974143e-15	3.4144223e-18	-1.7624277e-13	-0.0011056905	0.0010434659	-0.9997431	-4.9564064e-09	4.6774873e-09	1
0	-0.00056164025	0.00053004426	0.00013093557	0	0	-0.19000006	-0.0005616402	0.0005300442	0.00013093557	-1.7804375e-13	1.7974056e-15	3.4173275e-18	-1.7624278e-13	-0.0011232754	0.0010600836	-0.99973816	-5.035008e-09	4.7517643e-09	1
0	-0.000570717	0.0005386214	0.00013354473	0	0	-0.18499996	-0.000570717	0.00053862145	0.00013354473	-1.7804375e-13	1.7973963e-15	3.4202977e-18	-1.7624277e-13	-0.001141429	0.001077238	-0.9997329	-5.116147e-09	4.828439e-09	1
0	-0.0005800954	0.00054748374	0.00013624571	0	0	-0.18000017	-0.0005800954	0.0005474837	0.00013624571	-1.7804375e-13	1.7973865e-15	3.4233354e-18	-1.7624278e-13	-0.0011601857	0.0010949625	-0.9997275	-5.1999844e-09	4.907663e-09	1
0	-0.00058977556	0.0005566322	0.00013904183	0	0	-0.17499986	-0.00058977556	0.0005566322	0.00013904182	-1.7804375e-13	1.7973768e-15	3.4264435e-18	-1.762428e-13	-0.0011795459	0.0011132595	-0.99972194	-5.2865166e-09	4.9894444e-09	1
0	-0.0005997895	0.0005660964	0.00014193835	0	0	-0.17000006	-0.00059978955	0.0005660964	0.00014193835	-1.7804375e-13	1.7973669e-15	3.4296232e-18	-1.762428e-13	-0.0011995736	0.0011321877	-0.99971616	-5.3760303e-09	5.074043e-09	1
0	-0.00061014725	0.0005758861	0.00014493908	0	0	-0.1650002	-0.00061014725	0.0005758861	0.0001449391	-1.7804375e-13	1.7973563e-15	3.4328785e-18	-1.7624281e-13	-0.0012202892	0.0011517671	-0.9997101	-5.468622e-09	5.1615623e-09	1
0	-0.0006208677	0.0005860197	0.0001480525	0	0	-0.15999989	-0.0006208677	0.00058601977	0.0001480525	-1.7804374e-13	1.7973455e-15	3.4362123e-18	-1.7624282e-13	-0.0012417298	0.0011720343	-0.9997039	-5.564456e-09	5.252147e-09	1