# t (s)	mx ()	my ()	mz ()	B_extx (T)	B_exty (T)	B_extz (T)	mx ()	my ()	mz ()	E_anis (J)	E_demag (J)	E_exch (J)	E_total (J)	m_zrange1_x ()	m_zrange1_y ()	m_zrange1_z ()	m_zrange0_x ()	m_zrange0_y ()	m_zrange0_z ()
0	0	0	1	0	0	1	0	0	1	-1.7804318e-13	2.221299e-15	-0	-1.8289977e-13	0	0	1	0	0	1
0	0.00016727611	-0.00015772966	0.999974	0	0	0.94999886	0.00016727611	-0.00015772966	0.999974	-1.7804366e-13	2.2211925e-15	1.0289402e-19	-1.8254617e-13	0.00033453	-0.00031543837	0.99994785	2.2231992e-08	-2.096322e-08	1
0	0.00017658221	-0.0001665088	0.9999719	0	0	0.900001	0.00017658221	-0.0001665088	0.99997187	-1.7804367e-13	2.2211838e-15	1.08208646e-19	-1.8219229e-13	0.00035314093	-0.00033299546	0.9999437	2.3480528e-08	-2.2141045e-08	1
0	0.00018698587	-0.0001763236	0.99996954	0	0	0.849999	0.00018698587	-0.0001763236	0.9999695	-1.7804368e-13	2.2211737e-15	1.1404813e-19	-1.8183842e-13	0.00037394682	-0.00035262373	0.99993896	2.4876332e-08	-2.3457844e-08	1
0	0.00019868996	-0.00018736577	0.9999668	0	0	0.8000007	0.00019868996	-0.00018736577	0.99996686	-1.7804371e-13	2.221162e-15	1.204942e-19	-1.8148455e-13	0.00039735343	-0.00037470658	0.99993366	2.6446614e-08	-2.4939318e-08	1
0	0.00021195743	-0.00019988339	0.99996364	0	0	0.75	0.00021195743	-0.00019988339	0.99996364	-1.7804371e-13	2.2211489e-15	1.2764675e-19	-1.8113065e-13	0.00042388664	-0.00039974015	0.99992734	2.8226674e-08	-2.661876e-08	1
0	0.0002271206	-0.00021419047	0.99996006	0	0	0.69999945	0.0002271206	-0.00021419047	0.99996006	-1.7804372e-13	2.2211336e-15	1.3562948e-19	-1.807768e-13	0.00045421097	-0.0004283524	0.9999201	3.026108e-08	-2.8538302e-08	1
0	0.00024462224	-0.00023070481	0.99995583	0	0	0.6500008	0.00024462224	-0.00023070484	0.99995583	-1.7804375e-13	2.2211154e-15	1.4459758e-19	-1.8042291e-13	0.0004892118	-0.0004613789	0.9999116	3.2609254e-08	-3.075401e-08	1
0	0.00026504046	-0.00024997292	0.99995077	0	0	0.59999925	0.00026504046	-0.00024997292	0.99995077	-1.7804375e-13	2.2210936e-15	1.5474851e-19	-1.8006903e-13	0.0005300456	-0.0004999125	0.99990153	3.5348762e-08	-3.33392e-08	1
0	0.00028917825	-0.000272753	0.9999447	0	0	0.5499998	0.00028917822	-0.000272753	0.9999447	-1.7804376e-13	2.2210678e-15	1.6633842e-19	-1.7971516e-13	0.00057831785	-0.00054546964	0.9998894	3.8587345e-08	-3.6395612e-08	1
0	0.0003181455	-0.00030009417	0.99993724	0	0	0.5	0.0003181455	-0.00030009417	0.9999373	-1.7804376e-13	2.221036e-15	1.7970592e-19	-1.7936127e-13	0.0006362485	-0.0006001483	0.9998745	4.247393e-08	-4.0064002e-08	1
0	0.0003535631	-0.00033352812	0.99992794	0	0	0.4500005	0.00035356305	-0.00033352812	0.999928	-1.7804376e-13	2.2209964e-15	1.9531001e-19	-1.7900739e-13	0.000707079	-0.0006670117	0.99985594	4.722599e-08	-4.4549914e-08	1
0	0.00039784014	-0.00037533353	0.9999162	0	0	0.40000036	0.00039784014	-0.00037533353	0.9999162	-1.7804378e-13	2.2209452e-15	2.1379084e-19	-1.7865353e-13	0.0007956272	-0.00075061695	0.99983233	5.3166772e-08	-5.0159066e-08	1
0	0.0004547688	-0.0004290991	0.9999007	0	0	0.34999973	0.0004547688	-0.0004290991	0.9999007	-1.7804376e-13	2.2208789e-15	2.3607417e-19	-1.7829966e-13	0.0009094768	-0.0008581409	0.9998014	6.080511e-08	-5.7372976e-08	1
0	0.00053069583	-0.0005008343	0.9998795	0	0	0.29999962	0.0005306959	-0.0005008343	0.9998796	-1.7804376e-13	2.2207876e-15	2.6355936e-19	-1.7794582e-13	0.0010613208	-0.0010016018	0.9997592	7.099257e-08	-6.699798e-08	1
0	0.0006369775	-0.0006013087	0.9998495	0	0	0.25	0.0006369775	-0.00060130865	0.9998495	-1.7804372e-13	2.2206578e-15	2.9848936e-19	-1.7759196e-13	0.0012738698	-0.001202537	0.9996991	8.525289e-08	-8.04791e-08	1
0	0.0008167884	-0.0007714701	0.9997976	0	0	0.19499981	0.0008167884	-0.00077147	0.9997976	-1.7804362e-13	2.2204325e-15	3.5024073e-19	-1.7720275e-13	0.0016334674	-0.0015428367	0.99959517	1.09379116e-07	-1.0331053e-07	1
0	0.00083825516	-0.0007917969	0.9997913	0	0	0.19000006	0.00083825516	-0.00079179683	0.9997913	-1.7804362e-13	2.2204052e-15	3.5592114e-19	-1.7716738e-13	0.0016763981	-0.0015834876	0.99958265	1.1225943e-07	-1.0603789e-07	1
0	0.0008609579	-0.00081329944	0.9997847	0	0	0.18499996	0.0008609578	-0.0008132995	0.9997847	-1.7804359e-13	2.2203764e-15	3.6180614e-19	-1.7713198e-13	0.0017218003	-0.0016264901	0.99956936	1.15305596e-07	-1.0892302e-07	1
0	0.0008848788	-0.00083596096	0.9997777	0	0	0.18000017	0.00088487874	-0.00083596096	0.9997777	-1.7804356e-13	2.220346e-15	3.6790724e-19	-1.7709659e-13	0.0017696389	-0.00167181	0.99955535	1.1851519e-07	-1.11963644e-07	1
0	0.0009101557	-0.0008599135	0.9997703	0	0	0.17499986	0.0009101557	-0.0008599135	0.9997703	-1.7804353e-13	2.220314e-15	3.7423802e-19	-1.7706119e-13	0.0018201896	-0.0017197118	0.99954057	1.2190677e-07	-1.1517747e-07	1
0	0.0009369222	-0.0008852818	0.99976236	0	0	0.17000006	0.0009369222	-0.0008852818	0.99976236	-1.7804353e-13	2.2202802e-15	3.8081317e-19	-1.7702583e-13	0.0018737189	-0.001770445	0.99952483	1.2549818e-07	-1.1858128e-07	1
0	0.00096530735	-0.0009121907	0.99975413	0	0	0.1650002	0.00096530735	-0.0009121907	0.99975413	-1.7804352e-13	2.2202436e-15	3.8764853e-19	-1.7699046e-13	0.0019304855	-0.0018242592	0.99950814	1.2930677e-07	-1.221918e-07	1
0	0.0009953597	-0.00094068685	0.99974513	0	0	0.15999989	0.0009953597	-0.00094068685	0.99974513	-1.780435e-13	2.2202053e-15	3.947614e-19	-1.7695506e-13	0.0019905863	-0.0018812477	0.9994904	1.3333909e-07	-1.260153e-07	1
0	0.0010275445	-0.00097121357	0.9997357	0	0	0.15500008	0.0010275445	-0.00097121357	0.99973565	-1.7804345e-13	2.2201638e-15	4.021721e-19	-1.7691966e-13	0.0020549514	-0.0019422971	0.99947155	1.3765752e-07	-1.3011126e-07	1
0	0.0010617629	-0.001003678	0.99972564	0	0	0.14999981	0.0010617629	-0.001003678	0.99972564	-1.7804343e-13	2.2201195e-15	4.0990093e-19	-1.7688429e-13	0.0021233836	-0.0020072213	0.9994513	1.4224881e-07	-1.3446719e-07	1
0	0.0010983368	-0.0010383875	0.99971485	0	0	0.14500023	0.0010983368	-0.0010383875	0.99971485	-1.7804341e-13	2.2200727e-15	4.1797193e-19	-1.7684892e-13	0.0021965264	-0.0020766358	0.99942964	1.4715617e-07	-1.3912438e-07	1
0	0.0011375103	-0.0010755765	0.9997032	0	0	0.14000009	0.0011375103	-0.0010755765	0.9997032	-1.780434e-13	2.2200221e-15	4.2641083e-19	-1.7681355e-13	0.0022748683	-0.002151009	0.99940646	1.5241233e-07	-1.4411425e-07	1
0	0.0011795284	-0.0011154799	0.9996908	0	0	0.13500017	0.0011795283	-0.0011154799	0.9996908	-1.7804334e-13	2.219968e-15	4.3524574e-19	-1.7677816e-13	0.0023588985	-0.00223081	0.99938154	1.5805016e-07	-1.4946832e-07	1
0	0.0012248489	-0.0011585361	0.99967736	0	0	0.13000007	0.0012248489	-0.0011585361	0.99967736	-1.7804329e-13	2.2199092e-15	4.4451244e-19	-1.7674278e-13	0.0024495337	-0.0023169168	0.9993546	1.641311e-07	-1.5524543e-07	1
0	0.0012736237	-0.0012048894	0.9996628	0	0	0.125	0.0012736237	-0.0012048894	0.9996627	-1.7804326e-13	2.2198461e-15	4.542438e-19	-1.7670739e-13	0.002547077	-0.0024096174	0.9993256	1.7067552e-07	-1.6146492e-07	1
0	0.0013266647	-0.0012553273	0.999647	0	0	0.11999989	0.0013266648	-0.0012553274	0.999647	-1.780432e-13	2.219777e-15	4.6448285e-19	-1.76672e-13	0.002653152	-0.0025104862	0.9992941	1.7779242e-07	-1.6823252e-07	1
0	0.0013841838	-0.0013100468	0.99963	0	0	0.11499984	0.001384184	-0.0013100468	0.99963	-1.7804317e-13	2.2197026e-15	4.7527523e-19	-1.7663665e-13	0.0027681822	-0.002619918	0.99925977	1.8551016e-07	-1.7557454e-07	1
0	0.001446899	-0.0013697429	0.9996112	0	0	0.10999988	0.001446899	-0.0013697429	0.9996113	-1.7804309e-13	2.219621e-15	4.866735e-19	-1.7660125e-13	0.0028936043	-0.0027393026	0.9992225	1.9392502e-07	-1.8358438e-07	1
0	0.0015155034	-0.0014350822	0.9995908	0	0	0.10499983	0.0015155034	-0.0014350822	0.9995908	-1.7804306e-13	2.2195317e-15	4.9873837e-19	-1.7656589e-13	0.0030308035	-0.0028699718	0.99918157	2.0313013e-07	-1.9235134e-07	1
0	0.001590784	-0.0015068095	0.9995683	0	0	0.10000009	0.001590784	-0.0015068096	0.99956834	-1.7804296e-13	2.2194332e-15	5.115407e-19	-1.765305e-13	0.0031813548	-0.0030134171	0.9991365	2.1323105e-07	-2.0197544e-07	1
0	0.00167409	-0.0015862667	0.9995434	0	0	0.09500003	0.00167409	-0.0015862667	0.9995434	-1.7804287e-13	2.2193248e-15	5.2515805e-19	-1.7649512e-13	0.0033479552	-0.0031723205	0.9990868	2.2440877e-07	-2.126367e-07	1
0	0.0017667657	-0.0016747387	0.9995158	0	0	0.090000086	0.0017667657	-0.0016747387	0.9995158	-1.780428e-13	2.2192039e-15	5.396894e-19	-1.7645976e-13	0.0035332947	-0.0033492527	0.99903154	2.3684375e-07	-2.245076e-07	1
0	0.0018700599	-0.0017734253	0.9994849	0	0	0.08500003	0.0018700599	-0.0017734253	0.9994849	-1.7804272e-13	2.2190688e-15	5.5524204e-19	-1.764244e-13	0.0037398692	-0.0035466126	0.99896973	2.507034e-07	-2.3774899e-07	1
0	0.0019861283	-0.001884415	0.9994502	0	0	0.079999946	0.0019861283	-0.0018844152	0.9994502	-1.7804259e-13	2.218917e-15	5.7194974e-19	-1.76389e-13	0.00397199	-0.0037685777	0.9989004	2.6627708e-07	-2.5264123e-07	1
0	0.0021174764	-0.0020101636	0.99941087	0	0	0.074999906	0.0021174764	-0.0020101639	0.999411	-1.7804246e-13	2.2187456e-15	5.8997044e-19	-1.7635366e-13	0.0042346697	-0.004020058	0.99882185	2.8390104e-07	-2.6951375e-07	1
0	0.0022673027	-0.0021537915	0.99936604	0	0	0.070000045	0.0022673027	-0.0021537915	0.99936604	-1.7804229e-13	2.2185491e-15	6.0949423e-19	-1.7631827e-13	0.004534302	-0.004307294	0.99873215	3.0400432e-07	-2.887852e-07	1
0	0.0024393403	-0.0023189147	0.9993145	0	0	0.065000035	0.0024393403	-0.0023189147	0.99931455	-1.7804211e-13	2.2183232e-15	6.3075686e-19	-1.762829e-13	0.004878354	-0.0046375184	0.99862903	3.270878e-07	-3.109409e-07	1
0	0.0026405957	-0.0025124897	0.9992544	0	0	0.059999947	0.0026405957	-0.00251249	0.9992544	-1.780419e-13	2.21806e-15	6.5406107e-19	-1.7624755e-13	0.005280837	-0.0050246427	0.9985087	3.540917e-07	-3.3691418e-07	1
0	0.0028754368	-0.0027386465	0.9991838	0	0	0.05499994	0.0028754368	-0.0027386467	0.9991838	-1.7804161e-13	2.21775e-15	6.7976674e-19	-1.7621215e-13	0.005750488	-0.0054769265	0.99836737	3.8560202e-07	-3.672591e-07	1
0	0.0031602758	-0.0030138786	0.9990989	0	0	0.050000045	0.0031602758	-0.0030138786	0.9990989	-1.7804132e-13	2.2173783e-15	7.08394e-19	-1.7617681e-13	0.0063201278	-0.006027353	0.9981977	4.23821e-07	-4.0418885e-07	1
0	0.0035034588	-0.003346063	0.9989959	0	0	0.045000043	0.0035034588	-0.0033460627	0.99899596	-1.7804093e-13	2.2169268e-15	7.405684e-19	-1.7614145e-13	0.007006448	-0.0066916766	0.9979918	4.698684e-07	-4.4876032e-07	1
0	0.003929214	-0.0037594968	0.998868	0	0	0.039999973	0.0039292146	-0.0037594966	0.998868	-1.7804046e-13	2.2163655e-15	7.7718726e-19	-1.761061e-13	0.007857902	-0.0075184894	0.997736	5.269952e-07	-5.042336e-07	1
0	0.0044740275	-0.0042906706	0.9987045	0	0	0.035000023	0.0044740275	-0.0042906706	0.9987045	-1.7803979e-13	2.215648e-15	8.1955184e-19	-1.7607073e-13	0.008947454	-0.008580766	0.9974089	6.000968e-07	-5.755048e-07	1
0	0.005192998	-0.0049949307	0.9984884	0	0	0.029999973	0.005192998	-0.0049949307	0.9984883	-1.7803897e-13	2.2147e-15	8.695783e-19	-1.7603542e-13	0.010385299	-0.009989192	0.99697673	6.965666e-07	-6.700004e-07	1
0	0.006192819	-0.005980326	0.99818856	0	0	0.025000023	0.006192819	-0.005980326	0.99818856	-1.7803776e-13	2.213384e-15	9.304076e-19	-1.7600007e-13	0.012384808	-0.011959851	0.99637717	8.3072035e-07	-8.02218e-07	1
0	0.007653095	-0.0074298326	0.9977473	0	0	0.019999987	0.007653095	-0.0074298326	0.9977473	-1.7803594e-13	2.2114489e-15	1.0073194e-18	-1.7596473e-13	0.015305163	-0.014858669	0.9954946	1.0266568e-06	-9.967089e-07	1
0	0.010001653	-0.00978327	0.9970312	0	0	0.014999987	0.010001654	-0.00978327	0.99703115	-1.7803303e-13	2.2083115e-15	1.1109833e-18	-1.7592943e-13	0.020001965	-0.019565228	0.9940623	1.3417814e-06	-1.312487e-06	1
0	0.014414093	-0.014259563	0.9956636	0	0	0.009999993	0.014414094	-0.014259563	0.99566364	-1.7802731e-13	2.2023348e-15	1.2671925e-18	-1.7589418e-13	0.028826253	-0.028517213	0.99132717	1.9338338e-06	-1.9131062e-06	1
0	0.024806313	-0.0249455	0.9921622	0	0	0.0049999966	0.024806313	-0.024945498	0.9921622	-1.7801258e-13	2.1871325e-15	1.5615703e-18	-1.7585902e-13	0.049609296	-0.04988765	0.9843245	3.3282429e-06	-3.3469255e-06	1
0	0.058993995	-0.06030166	0.97623515	0	0	-9.887924e-17	0.058993995	-0.060301658	0.97623515	-1.7794646e-13	2.119771e-15	2.4952077e-18	-1.7582419e-13	0.11798007	-0.120595224	0.95247036	7.915517e-06	-8.091001e-06	1
0	0.064484805	-0.065935805	0.9721318	0	0	-0.0049999966	0.064484805	-0.065935805	0.9721318	-1.7792994e-13	2.102954e-15	2.7873594e-18	-1.757898e-13	0.12896097	-0.13186277	0.94426364	8.652318e-06	-8.847041e-06	1
0	0.0654873	-0.06696282	0.97130656	0	0	-0.009999993	0.0654873	-0.06696282	0.9713066	-1.7792664e-13	2.099599e-15	2.8506652e-18	-1.7575545e-13	0.1309658	-0.13391668	0.9426131	8.786876e-06	-8.984891e-06	1
0	0.06689945	-0.06840827	0.97009146	0	0	-0.014999987	0.06689945	-0.06840828	0.97009146	-1.779218e-13	2.094677e-15	2.9461402e-18	-1.7572121e-13	0.13378993	-0.13680738	0.94018286	8.976406e-06	-9.178893e-06	1
0	0.06851163	-0.070057675	0.96865356	0	0	-0.019999987	0.06851163	-0.070057675	0.96865356	-1.7791614e-13	2.088877e-15	3.0591753e-18	-1.7568706e-13	0.13701406	-0.14010595	0.9373071	9.192784e-06	-9.400268e-06	1
0	0.07140998	-0.07302187	0.9659611	0	0	-0.025000023	0.07140998	-0.07302187	0.9659611	-1.7790556e-13	2.0780865e-15	3.2669883e-18	-1.7565327e-13	0.14281036	-0.14603394	0.93192226	9.581765e-06	-9.79809e-06	1
0	0.07517675	-0.07687263	0.962271	0	0	-0.029999973	0.07517675	-0.07687264	0.96227103	-1.7789116e-13	2.0634426e-15	3.544609e-18	-1.7561985e-13	0.15034342	-0.15373497	0.9245419	1.00872985e-05	-1.0314902e-05	1
0	0.0016495062	-0.016061604	0.0041512796	0	0	-0.035000023	0.0016495059	-0.016061604	0.0041512796	-1.7802871e-13	2.2026382e-15	5.0103795e-17	-1.7577494e-13	0.0032987902	-0.032121055	-0.9916974	2.2168778e-07	-2.1567853e-06	1
0	0.0014024051	-0.015361978	0.003945133	0	0	-0.039999973	0.0014024051	-0.015361978	0.0039451327	-1.7802947e-13	2.2034143e-15	5.0084532e-17	-1.7577485e-13	0.0028046216	-0.030721894	-0.9921097	1.8852828e-07	-2.0630537e-06	1
0	0.001242026	-0.014864193	0.0037841434	0	0	-0.045000043	0.0012420261	-0.014864193	0.0037841431	-1.7803006e-13	2.2040164e-15	5.0040275e-17	-1.757748e-13	0.0024838853	-0.02972639	-0.99243176	1.6701195e-07	-1.9964082e-06	1
0	-0.0011157563	-0.0066945814	0.0018803492	0	0	-0.050000045	-0.0011157563	-0.0066945814	0.0018803494	-1.7803744e-13	2.2115484e-15	4.8950894e-17	-1.7577625e-13	-0.002231363	-0.013388263	-0.9962393	-1.4965282e-07	-8.993562e-07	1
0	-0.0012451255	-0.00617357	0.001778746	0	0	-0.05499994	-0.0012451255	-0.00617357	0.001778746	-1.7803781e-13	2.2119433e-15	4.892976e-17	-1.7577624e-13	-0.002490084	-0.012346311	-0.99644244	-1.6704567e-07	-8.2946144e-07	1
0	-0.001313942	-0.005852233	0.0017034009	0	0	-0.059999947	-0.0013139419	-0.005852233	0.0017034009	-1.7803807e-13	2.2122294e-15	4.8891172e-17	-1.7577621e-13	-0.0026277076	-0.01170368	-0.99659324	-1.7631233e-07	-7.863716e-07	1
0	-0.0013345729	-0.0057294285	0.0016627862	0	0	-0.065000035	-0.0013345729	-0.0057294285	0.0016627862	-1.7803818e-13	2.2123702e-15	4.872479e-17	-1.7577633e-13	-0.0026689665	-0.011458088	-0.9966744	-1.7912221e-07	-7.699387e-07	1
0	-0.0027711256	0.002636938	0.0007845491	0	0	-0.070000045	-0.0027711256	0.002636938	0.0007845491	-1.7804176e-13	2.2161681e-15	4.7780268e-17	-1.7577742e-13	-0.005541879	0.005273521	-0.99843085	-3.721293e-07	3.541087e-07	1
0	-0.0025535168	0.002428688	0.0007188659	0	0	-0.074999906	-0.0025535165	0.002428688	0.0007188659	-1.78042e-13	2.2164555e-15	4.7761865e-17	-1.757774e-13	-0.0051066903	0.0048570503	-0.9985623	-3.4292432e-07	3.261598e-07	1
0	-0.0023638804	0.0022463894	0.0006625077	0	0	-0.079999946	-0.0023638804	0.0022463892	0.0006625077	-1.7804218e-13	2.2167022e-15	4.7744786e-17	-1.7577736e-13	-0.004727443	0.0044924766	-0.9986751	-3.1747302e-07	3.016931e-07	1
0	-0.0022014107	0.002090495	0.0006139705	0	0	-0.08500003	-0.0022014107	0.002090495	0.00061397057	-1.7804237e-13	2.2169148e-15	4.7728884e-17	-1.7577736e-13	-0.0044025257	0.0041807094	-0.998772	-2.956679e-07	2.8077042e-07	1
0	-0.0020602155	0.0019552715	0.0005716811	0	0	-0.090000086	-0.0020602157	0.0019552715	0.0005716811	-1.780425e-13	2.2170996e-15	4.7714024e-17	-1.7577732e-13	-0.004120155	0.0039102803	-0.99885666	-2.7671823e-07	2.626221e-07	1
0	-0.0019354374	0.0018358601	0.0005344489	0	0	-0.09500003	-0.0019354374	0.0018358601	0.0005344489	-1.7804263e-13	2.217262e-15	4.77001e-17	-1.7577731e-13	-0.0038706148	0.0036714736	-0.9989311	-2.5997167e-07	2.465958e-07	1
0	-0.0018249108	0.0017302153	0.0005014593	0	0	-0.10000009	-0.0018249108	0.0017302153	0.0005014593	-1.7804275e-13	2.2174063e-15	4.7687022e-17	-1.757773e-13	-0.0036495763	0.0034601982	-0.99899715	-2.4513784e-07	2.3241707e-07	1
0	-0.0017266071	0.0016363572	0.00047205755	0	0	-0.10499983	-0.0017266072	0.0016363572	0.00047205755	-1.7804284e-13	2.2175346e-15	4.7674697e-17	-1.7577728e-13	-0.0034529825	0.0032724943	-0.99905586	-2.3194457e-07	2.1982036e-07	1
0	-0.0016379224	0.0015517296	0.0004456367	0	0	-0.10999988	-0.0016379224	0.0015517295	0.0004456367	-1.7804292e-13	2.2176502e-15	4.7663063e-17	-1.7577725e-13	-0.003275625	0.0031032509	-0.99910873	-2.2004211e-07	2.0846237e-07	1
0	-0.001558072	0.0014756053	0.00042181267	0	0	-0.11499984	-0.001558072	0.0014756054	0.00042181264	-1.7804298e-13	2.217754e-15	4.7652055e-17	-1.7577724e-13	-0.003115935	0.0029510125	-0.99915636	-2.0932536e-07	1.9824567e-07	1
0	-0.0014856099	0.0014065732	0.00040021076	0	0	-0.11999989	-0.0014856099	0.0014065731	0.00040021076	-1.7804307e-13	2.2178488e-15	4.7641616e-17	-1.7577724e-13	-0.0029710203	0.0028129574	-0.9991996	-1.9960021e-07	1.8898083e-07	1
0	-0.0014195814	0.0013437087	0.00038053672	0	0	-0.125	-0.0014195812	0.0013437087	0.00038053672	-1.7804311e-13	2.2179346e-15	4.7631703e-17	-1.7577724e-13	-0.0028389718	0.0026872365	-0.9992389	-1.907385e-07	1.8054374e-07	1
0	-0.0013591442	0.0012862016	0.00036254764	0	0	-0.13000007	-0.001359144	0.0012862016	0.0003625476	-1.7804318e-13	2.2180127e-15	4.7622267e-17	-1.7577721e-13	-0.0027181054	0.0025722303	-0.99927497	-1.8262719e-07	1.7282566e-07	1
0	-0.0013036419	0.0012334161	0.00034603826	0	0	-0.13500017	-0.0013036419	0.0012334161	0.00034603826	-1.7804322e-13	2.2180847e-15	4.7613277e-17	-1.757772e-13	-0.0026071088	0.0024666663	-0.99930793	-1.7517826e-07	1.657413e-07	1
0	-0.0012524597	0.0011847623	0.00033083497	0	0	-0.14000009	-0.0012524597	0.0011847623	0.00033083497	-1.7804328e-13	2.2181506e-15	4.76047e-17	-1.7577719e-13	-0.0025047513	0.0023693654	-0.9993383	-1.6830904e-07	1.5921142e-07	1
0	-0.0012051496	0.0011398086	0.00031679115	0	0	-0.14500023	-0.0012051496	0.0011398087	0.00031679115	-1.780433e-13	2.2182118e-15	4.7596495e-17	-1.7577717e-13	-0.0024101369	0.002279464	-0.9993664	-1.619595e-07	1.5317814e-07	1
0	-0.0011612822	0.001098143	0.00030378293	0	0	-0.14999981	-0.0011612822	0.001098143	0.00030378293	-1.7804334e-13	2.2182688e-15	4.758865e-17	-1.7577716e-13	-0.0023224084	0.0021961385	-0.9993925	-1.560721e-07	1.475862e-07	1
0	-0.0011204729	0.0010593963	0.00029170126	0	0	-0.15500008	-0.0011204728	0.0010593963	0.00029170123	-1.780434e-13	2.218321e-15	4.758113e-17	-1.7577717e-13	-0.0022407954	0.0021186504	-0.9994166	-1.5059503e-07	1.4238594e-07	1
0	-0.0010824441	0.001023302	0.00028045021	0	0	-0.15999989	-0.0010824441	0.001023302	0.00028045021	-1.7804343e-13	2.2183702e-15	4.757391e-17	-1.7577716e-13	-0.002164743	0.0020464663	-0.9994391	-1.4549121e-07	1.3754172e-07	1
0	-0.0010469	0.0009895763	0.00026995048	0	0	-0.1650002	-0.0010468999	0.0009895762	0.00026995048	-1.7804344e-13	2.2184163e-15	4.756698e-17	-1.7577714e-13	-0.0020936592	0.0019790197	-0.9994601	-1.407208e-07	1.3301536e-07	1
0	-0.0010136086	0.0009579974	0.000260128	0	0	-0.17000006	-0.0010136086	0.0009579974	0.000260128	-1.7804345e-13	2.2184587e-15	4.7560318e-17	-1.7577712e-13	-0.0020270813	0.0019158662	-0.9994798	-1.3625277e-07	1.2877712e-07	1
0	-0.0009823648	0.0009283684	0.00025092546	0	0	-0.17499986	-0.0009823649	0.0009283684	0.00025092546	-1.780435e-13	2.2184985e-15	4.7553905e-17	-1.7577714e-13	-0.0019645975	0.0018566122	-0.9994982	-1.3205951e-07	1.248006e-07	1
0	-0.0009529873	0.00090051664	0.00024228328	0	0	-0.18000017	-0.0009529873	0.00090051664	0.00024228329	-1.7804352e-13	2.2185364e-15	4.754773e-17	-1.7577713e-13	-0.0019058466	0.0018009122	-0.9995154	-1.2811675e-07	1.2106258e-07	1
0	-0.00092531706	0.00087428873	0.0002341539	0	0	-0.18499996	-0.00092531706	0.00087428873	0.0002341539	-1.7804353e-13	2.2185716e-15	4.754178e-17	-1.7577712e-13	-0.0018505099	0.0017484599	-0.9995317	-1.244031e-07	1.1754249e-07	1
0	-0.00089919916	0.00084953784	0.00022649519	0	0	-0.19000006	-0.00089919916	0.00084953784	0.00022649518	-1.7804355e-13	2.2186046e-15	4.753603e-17	-1.757771e-13	-0.0017982773	0.0016989616	-0.999547	-1.2089781e-07	1.1422069e-07	1
0	-0.00087451277	0.0008261484	0.00021926602	0	0	-0.19499981	-0.0008745127	0.0008261484	0.00021926599	-1.7804359e-13	2.2186362e-15	4.7530483e-17	-1.7577709e-13	-0.0017489077	0.0016521858	-0.9995615	-1.17584634e-07	1.1108156e-07	1
0	-0.0008289922	0.0007830299	0.00020596609	0	0	-0.20499994	-0.0008289922	0.0007830298	0.0002059661	-1.7804362e-13	2.2186935e-15	4.7519935e-17	-1.757771e-13	-0.0016578729	0.0015659545	-0.99958813	-1.114753e-07	1.052946e-07	1
0	-0.00065770844	0.0006209208	0.0001564131	0	0	-0.25499967	-0.00065770844	0.0006209208	0.0001564131	-1.7804372e-13	2.2189085e-15	4.7476025e-17	-1.7577705e-13	-0.0013153285	0.0012417581	-0.9996872	-8.848724e-08	8.3537806e-08	1
0	-0.0005450075	0.00051436696	0.00012441279	0	0	-0.30500022	-0.0005450075	0.00051436696	0.00012441278	-1.7804376e-13	2.2190465e-15	4.7442656e-17	-1.7577701e-13	-0.0010899417	0.0010286648	-0.9997511	-7.336161e-08	6.9237146e-08	1
0	-0.0004652567	0.00043901036	0.000102203325	0	0	-0.3549996	-0.0004652567	0.00043901036	0.00010220331	-1.7804376e-13	2.2191425e-15	4.7416276e-17	-1.7577694e-13	-0.00093045074	0.00087796163	-0.9997956	-6.265826e-08	5.9123522e-08	1
0	-0.00040584017	0.0003828913	8.598568e-05	0	0	-0.40499973	-0.00040584014	0.0003828913	8.598569e-05	-1.7804378e-13	2.2192126e-15	4.739481e-17	-1.7577693e-13	-0.0008116257	0.0007657309	-0.99982804	-5.4683973e-08	5.159177e-08	1
0	-0.00035987375	0.00033948777	7.368264e-05	0	0	-0.45500082	-0.0003598738	0.0003394878	7.368263e-05	-1.7804378e-13	2.2192653e-15	4.7376968e-17	-1.7577689e-13	-0.0007196991	0.00067892985	-0.9998526	-4.8514853e-08	4.5766594e-08	1
0	-0.0003232527	0.0003049159	6.40727e-05	0	0	-0.5050003	-0.0003232527	0.00030491588	6.40727e-05	-1.7804376e-13	2.2193066e-15	4.7361864e-17	-1.7577686e-13	-0.00064646173	0.0006097907	-0.99987185	-4.359997e-08	4.112673e-08	1
0	-0.00029339103	0.00027672976	5.6385143e-05	0	0	-0.55500025	-0.00029339103	0.00027672976	5.638514e-05	-1.7804376e-13	2.2193392e-15	4.7348907e-17	-1.7577686e-13	-0.00058674254	0.00055342214	-0.9998872	-3.959229e-08	3.7343902e-08	1
0	-0.0002685772	0.00025331104	5.0119044e-05	0	0	-0.60500026	-0.0002685772	0.00025331107	5.0119044e-05	-1.7804375e-13	2.219366e-15	4.7337654e-17	-1.7577683e-13	-0.0005371181	0.0005065879	-0.99989974	-3.6262083e-08	3.4200923e-08	1
0	-0.00024763195	0.00023354533	4.4924727e-05	0	0	-0.6549993	-0.00024763195	0.00023354532	4.4924727e-05	-1.7804375e-13	2.2193883e-15	4.7327787e-17	-1.7577682e-13	-0.00049523043	0.00046705912	-0.9999102	-3.3451084e-08	3.154821e-08	1
0	-0.00022971109	0.00021663522	4.0560422e-05	0	0	-0.70500124	-0.00022971109	0.00021663522	4.0560422e-05	-1.7804374e-13	2.219407e-15	4.731906e-17	-1.757768e-13	-0.00045939116	0.00043324116	-0.9999189	-3.1045985e-08	2.9278759e-08	1
0	-0.00021421231	0.0002020113	3.6852245e-05	0	0	-0.7549992	-0.00021421231	0.0002020113	3.6852245e-05	-1.7804372e-13	2.2194226e-15	4.7311287e-17	-1.7577679e-13	-0.00042839564	0.00040399528	-0.99992627	-2.8965971e-08	2.7316148e-08	1
0	-0.00020067049	0.00018923465	3.3668708e-05	0	0	-0.80500025	-0.00020067047	0.00018923465	3.3668708e-05	-1.7804371e-13	2.2194364e-15	4.7304312e-17	-1.7577678e-13	-0.00040131377	0.0003784437	-0.9999327	-2.7148602e-08	2.5601459e-08	1
0	-0.00018873738	0.00017797643	3.0909225e-05	0	0	-0.85500133	-0.00018873738	0.00017797643	3.0909225e-05	-1.7804368e-13	2.2194482e-15	4.729802e-17	-1.7577675e-13	-0.00037744918	0.00035592876	-0.99993825	-2.554714e-08	2.409056e-08	1
0	-0.00017814325	0.00016798188	2.8500013e-05	0	0	-0.9049992	-0.00017814327	0.00016798188	2.8500013e-05	-1.7804367e-13	2.2194584e-15	4.7292314e-17	-1.7577672e-13	-0.00035626238	0.0003359411	-0.999943	-2.4125375e-08	2.2749264e-08	1
0	-0.00016867826	0.00015905274	2.6383623e-05	0	0	-0.95500135	-0.00016867828	0.00015905274	2.6383626e-05	-1.7804366e-13	2.2194673e-15	4.7287123e-17	-1.7577671e-13	-0.00033733368	0.00031808397	-0.99994725	-2.2855177e-08	2.1550964e-08	1
0	-0.00016097663	0.00015178749	2.4686009e-05	0	0	-1	-0.00016097663	0.00015178749	2.468601e-05	-1.7804366e-13	2.2194743e-15	4.728283e-17	-1.7577672e-13	-0.0003219314	0.0003035544	-0.99995065	-2.1821611e-08	2.0575966e-08	1
0	-0.0001695693	0.00015989314	2.6582902e-05	0	0	-0.94999886	-0.0001695693	0.00015989314	2.6582902e-05	-1.7804366e-13	2.2194665e-15	4.7287626e-17	-1.7577671e-13	-0.00033911562	0.0003197646	-0.99994683	-2.2974726e-08	2.1663721e-08	1
0	-0.00017913927	0.00016892127	2.872678e-05	0	0	-0.900001	-0.00017913927	0.00016892128	2.8726776e-05	-1.7804367e-13	2.2194574e-15	4.729286e-17	-1.7577672e-13	-0.00035825433	0.00033781966	-0.99994254	-2.4259025e-08	2.2875309e-08	1
0	-0.00018986122	0.0001790363	3.116807e-05	0	0	-0.849999	-0.00018986122	0.00017903629	3.116807e-05	-1.7804368e-13	2.219447e-15	4.729862e-17	-1.7577675e-13	-0.00037969675	0.0003580484	-0.99993765	-2.569795e-08	2.423279e-08	1
0	-0.00020194016	0.00019043214	3.3964585e-05	0	0	-0.8000007	-0.00020194019	0.00019043214	3.3964585e-05	-1.7804371e-13	2.2194353e-15	4.7304967e-17	-1.7577678e-13	-0.00040385302	0.00038083852	-0.99993205	-2.7318986e-08	2.5762157e-08	1
0	-0.00021565764	0.0002033746	3.719934e-05	0	0	-0.75	-0.00021565765	0.0002033746	3.719934e-05	-1.7804372e-13	2.2194214e-15	4.731202e-17	-1.7577679e-13	-0.00043128614	0.0004067217	-0.9999256	-2.915993e-08	2.749909e-08	1
0	-0.00023137321	0.00021820313	4.0964496e-05	0	0	-0.69999945	-0.00023137321	0.00021820312	4.09645e-05	-1.7804374e-13	2.2194053e-15	4.7319886e-17	-1.757768e-13	-0.0004627151	0.00043637678	-0.99991804	-3.1269032e-08	2.9489161e-08	1
0	-0.00024956136	0.00023536563	4.5401757e-05	0	0	-0.6500008	-0.00024956136	0.00023536563	4.5401757e-05	-1.7804375e-13	2.2193862e-15	4.7328717e-17	-1.7577682e-13	-0.00049908896	0.0004706995	-0.9999092	-3.3709995e-08	3.179249e-08	1
0	-0.00027085206	0.0002554573	5.069165e-05	0	0	-0.59999925	-0.00027085206	0.0002554573	5.0691655e-05	-1.7804376e-13	2.219364e-15	4.7338713e-17	-1.7577683e-13	-0.0005416676	0.00051088014	-0.99989855	-3.6567364e-08	3.448894e-08	1
0	-0.00029610482	0.00027929049	5.7083627e-05	0	0	-0.5499998	-0.00029610482	0.00027929049	5.7083627e-05	-1.7804376e-13	2.2193364e-15	4.7350118e-17	-1.7577686e-13	-0.00059216964	0.00055854325	-0.9998858	-3.995647e-08	3.7687542e-08	1
0	-0.00032655263	0.00030802982	6.493513e-05	0	0	-0.5	-0.00032655263	0.00030802982	6.493513e-05	-1.7804376e-13	2.2193026e-15	4.736327e-17	-1.7577687e-13	-0.00065306114	0.0006160181	-0.99987006	-4.404282e-08	4.1544617e-08	1
0	-0.00036397003	0.00034335337	7.477452e-05	0	0	-0.4500005	-0.00036397003	0.00034335337	7.477452e-05	-1.7804378e-13	2.2192606e-15	4.7378616e-17	-1.757769e-13	-0.000727891	0.00068666047	-0.99985045	-4.9064578e-08	4.6285358e-08	1
0	-0.00041106105	0.0003878185	8.740428e-05	0	0	-0.40000036	-0.00041106105	0.00038781847	8.740428e-05	-1.7804378e-13	2.2192064e-15	4.739678e-17	-1.7577693e-13	-0.0008220667	0.0007755847	-0.9998252	-5.5384632e-08	5.2253025e-08	1
0	-0.00047213014	0.0004454987	0.00010410695	0	0	-0.34999973	-0.0004721301	0.00044549868	0.000104106955	-1.7804376e-13	2.2191342e-15	4.741866e-17	-1.7577695e-13	-0.00094419665	0.0008909374	-0.99979186	-6.3580714e-08	5.99943e-08	1
0	-0.00055446627	0.00052329997	0.00012708225	0	0	-0.29999962	-0.00055446627	0.00052329997	0.00012708225	-1.7804375e-13	2.219035e-15	4.744563e-17	-1.75777e-13	-0.0011088579	0.0010465294	-0.99974585	-7.463105e-08	7.043603e-08	1
0	-0.0006715165	0.00063397625	0.00016038702	0	0	-0.25	-0.0006715166	0.00063397625	0.00016038702	-1.7804368e-13	2.2188911e-15	4.7479863e-17	-1.7577702e-13	-0.0013429428	0.0012678674	-0.9996792	-9.0340414e-08	8.528998e-08	1
0	-0.0008744011	0.00082604104	0.00021925478	0	0	-0.19499981	-0.0008744011	0.00082604104	0.00021925481	-1.7804356e-13	2.2186364e-15	4.7530476e-17	-1.7577712e-13	-0.0017486848	0.0016519713	-0.99956155	-1.17569655e-07	1.1106714e-07	1
0	-0.0008990414	0.0008493823	0.00022648001	0	0	-0.19000006	-0.0008990413	0.00084938237	0.00022648001	-1.7804355e-13	2.2186048e-15	4.7536028e-17	-1.757771e-13	-0.0017979618	0.0016986507	-0.999547	-1.2087659e-07	1.1419978e-07	1
0	-0.00092520623	0.00087417656	0.00023414215	0	0	-0.18499996	-0.0009252062	0.00087417656	0.00023414215	-1.7804353e-13	2.2185716e-15	4.7541772e-17	-1.7577712e-13	-0.0018502881	0.0017482355	-0.99953175	-1.2438824e-07	1.1752745e-07	1
0	-0.0009528696	0.0009003989	0.00024226957	0	0	-0.18000017	-0.0009528696	0.00090039894	0.00024226955	-1.7804352e-13	2.2185362e-15	4.7547725e-17	-1.7577713e-13	-0.0019056111	0.0018006768	-0.9995155	-1.2810094e-07	1.2104678e-07	1
0	-0.0009822398	0.0009282455	0.0002509118	0	0	-0.17499986	-0.0009822398	0.0009282454	0.0002509118	-1.7804349e-13	2.2184985e-15	4.7553902e-17	-1.7577713e-13	-0.0019643474	0.0018563662	-0.99949825	-1.3204273e-07	1.2478408e-07	1
0	-0.0010134724	0.0009578657	0.00026011316	0	0	-0.17000006	-0.0010134724	0.0009578657	0.00026011313	-1.7804345e-13	2.2184587e-15	4.7560318e-17	-1.7577712e-13	-0.002026809	0.0019156026	-0.9994798	-1.3623448e-07	1.2875942e-07	1
0	-0.0010467487	0.0009894322	0.0002699344	0	0	-0.1650002	-0.0010467488	0.0009894322	0.0002699344	-1.7804344e-13	2.218416e-15	4.7566978e-17	-1.7577714e-13	-0.0020933566	0.0019787317	-0.9994602	-1.4070051e-07	1.32996e-07	1
0	-0.0010822695	0.001023138	0.0002804309	0	0	-0.15999989	-0.0010822695	0.001023138	0.0002804309	-1.7804343e-13	2.21837e-15	4.75739e-17	-1.7577716e-13	-0.0021643934	0.0020461385	-0.9994392	-1.4546774e-07	1.3751969e-07	1