# t (s)	mx ()	my ()	mz ()	B_extx (T)	B_exty (T)	B_extz (T)	mx ()	my ()	mz ()	E_anis (J)	E_demag (J)	E_exch (J)	E_total (J)
0	0	0	1	0	0	5.0050025	0	0	1	-2.0745295e-16	3.7347843e-16	-0	-1.0107176e-14
0	0.00028433194	-6.36428e-05	0.99999475	0	0	5	0.00028433194	-6.36428e-05	0.99999475	-2.0762059e-16	3.7347443e-16	3.1255317e-20	-1.0096998e-14
0	0.00028462632	-6.37089e-05	0.99999475	0	0	4.9949975	0.00028462632	-6.370891e-05	0.99999475	-2.076207e-16	3.7347443e-16	3.1286074e-20	-1.0086734e-14
0	0.00028492132	-6.377506e-05	0.99999475	0	0	4.99	0.00028492132	-6.377507e-05	0.99999475	-2.0762081e-16	3.7347443e-16	3.1316887e-20	-1.007647e-14
0	0.00028521693	-6.384137e-05	0.99999475	0	0	4.9849973	0.00028521693	-6.384137e-05	0.99999475	-2.0762093e-16	3.7347446e-16	3.1347754e-20	-1.0066208e-14
0	0.00028551318	-6.3907806e-05	0.99999475	0	0	4.980001	0.00028551315	-6.3907806e-05	0.99999475	-2.0762104e-16	3.7347443e-16	3.137867e-20	-1.0055946e-14
0	0.00028581006	-6.397445e-05	0.9999947	0	0	4.975003	0.00028581006	-6.3974454e-05	0.99999475	-2.0762113e-16	3.7347443e-16	3.1409644e-20	-1.0045683e-14
0	0.00028610756	-6.404121e-05	0.9999947	0	0	4.9700007	0.00028610753	-6.404122e-05	0.99999475	-2.0762126e-16	3.7347443e-16	3.1440676e-20	-1.00354185e-14
0	0.00028640564	-6.410805e-05	0.9999947	0	0	4.964997	0.00028640564	-6.410805e-05	0.9999947	-2.0762135e-16	3.7347443e-16	3.1471763e-20	-1.0025157e-14
0	0.0002867043	-6.417509e-05	0.9999947	0	0	4.960001	0.00028670428	-6.417509e-05	0.9999947	-2.0762147e-16	3.7347438e-16	3.150291e-20	-1.0014894e-14
0	0.0002870037	-6.424225e-05	0.9999947	0	0	4.9549985	0.0002870037	-6.424225e-05	0.9999947	-2.0762158e-16	3.7347438e-16	3.1534112e-20	-1.0004631e-14
0	0.0002873036	-6.4309505e-05	0.9999947	0	0	4.950001	0.0002873036	-6.4309505e-05	0.9999947	-2.0762169e-16	3.7347438e-16	3.1565364e-20	-9.994367e-15
0	0.00028760423	-6.437699e-05	0.9999947	0	0	4.945004	0.00028760423	-6.4376996e-05	0.9999947	-2.0762179e-16	3.7347438e-16	3.159667e-20	-9.984105e-15
0	0.00028790542	-6.444457e-05	0.99999464	0	0	4.940002	0.00028790542	-6.444457e-05	0.99999464	-2.076219e-16	3.734744e-16	3.1628042e-20	-9.9738434e-15
0	0.0002882073	-6.451227e-05	0.9999947	0	0	4.934998	0.0002882073	-6.451228e-05	0.99999464	-2.07622e-16	3.7347438e-16	3.1659475e-20	-9.96358e-15
0	0.0002885098	-6.4580134e-05	0.9999946	0	0	4.929996	0.0002885098	-6.4580134e-05	0.99999464	-2.0762214e-16	3.7347438e-16	3.1690953e-20	-9.953316e-15
0	0.00028881285	-6.464811e-05	0.99999464	0	0	4.924999	0.00028881288	-6.464812e-05	0.9999946	-2.0762223e-16	3.7347438e-16	3.1722496e-20	-9.943054e-15
0	0.00028911667	-6.4716296e-05	0.99999464	0	0	4.9200015	0.00028911664	-6.4716296e-05	0.99999464	-2.0762233e-16	3.7347438e-16	3.1754087e-20	-9.932792e-15
0	0.0002894211	-6.478458e-05	0.9999946	0	0	4.914999	0.0002894211	-6.478457e-05	0.99999464	-2.0762245e-16	3.7347438e-16	3.1785743e-20	-9.9225285e-15
0	0.00028972613	-6.4853055e-05	0.9999946	0	0	4.910003	0.00028972613	-6.485306e-05	0.9999945	-2.0762256e-16	3.7347438e-16	3.1817457e-20	-9.912264e-15
0	0.00029003172	-6.492158e-05	0.99999464	0	0	4.9049993	0.00029003175	-6.492158e-05	0.99999464	-2.0762266e-16	3.7347438e-16	3.1849223e-20	-9.902002e-15
0	0.00029033812	-6.4990316e-05	0.9999945	0	0	4.899997	0.00029033812	-6.499031e-05	0.9999945	-2.0762277e-16	3.7347438e-16	3.1881047e-20	-9.8917405e-15
0	0.00029064502	-6.505918e-05	0.9999945	0	0	4.894999	0.00029064502	-6.5059176e-05	0.9999946	-2.0762289e-16	3.7347438e-16	3.191294e-20	-9.881477e-15
0	0.0002909528	-6.512821e-05	0.9999944	0	0	4.8900027	0.0002909528	-6.512821e-05	0.9999945	-2.0762298e-16	3.7347438e-16	3.1944875e-20	-9.871213e-15
0	0.00029126095	-6.519739e-05	0.9999944	0	0	4.885	0.00029126095	-6.519739e-05	0.9999944	-2.0762311e-16	3.7347438e-16	3.197687e-20	-9.860951e-15
0	0.00029156986	-6.526671e-05	0.9999944	0	0	4.8800025	0.0002915699	-6.526671e-05	0.9999944	-2.0762321e-16	3.7347438e-16	3.2008933e-20	-9.850688e-15
0	0.00029187946	-6.5336186e-05	0.9999944	0	0	4.875	0.00029187946	-6.5336186e-05	0.9999944	-2.0762331e-16	3.7347432e-16	3.2041048e-20	-9.840426e-15
0	0.00029218977	-6.540581e-05	0.9999944	0	0	4.8699975	0.00029218977	-6.540581e-05	0.9999944	-2.0762345e-16	3.7347438e-16	3.2073237e-20	-9.830161e-15
0	0.0002925007	-6.547552e-05	0.9999944	0	0	4.865	0.00029250074	-6.547552e-05	0.9999944	-2.0762355e-16	3.7347435e-16	3.210546e-20	-9.819899e-15
0	0.0002928122	-6.5545435e-05	0.9999944	0	0	4.8599973	0.0002928122	-6.5545435e-05	0.9999944	-2.0762367e-16	3.7347424e-16	3.213775e-20	-9.809637e-15
0	0.00029312447	-6.5615495e-05	0.9999944	0	0	4.855001	0.00029312447	-6.56155e-05	0.9999944	-2.0762378e-16	3.7347424e-16	3.217011e-20	-9.799374e-15
0	0.00029343742	-6.5685694e-05	0.9999944	0	0	4.850003	0.00029343742	-6.568569e-05	0.9999944	-2.0762388e-16	3.7347424e-16	3.220252e-20	-9.789111e-15
0	0.00029375099	-6.5756074e-05	0.9999944	0	0	4.8450007	0.00029375096	-6.5756074e-05	0.9999944	-2.07624e-16	3.7347424e-16	3.223499e-20	-9.778847e-15
0	0.0002940651	-6.5826534e-05	0.9999944	0	0	4.839997	0.00029406513	-6.5826534e-05	0.9999944	-2.0762411e-16	3.7347424e-16	3.226752e-20	-9.768585e-15
0	0.0002943801	-6.589722e-05	0.9999944	0	0	4.835001	0.00029438012	-6.589722e-05	0.9999944	-2.0762423e-16	3.7347424e-16	3.2300114e-20	-9.758323e-15
0	0.00029469572	-6.596808e-05	0.9999944	0	0	4.8299985	0.00029469575	-6.596808e-05	0.9999944	-2.0762435e-16	3.7347424e-16	3.233277e-20	-9.748059e-15
0	0.00029501197	-6.6039036e-05	0.9999944	0	0	4.8250003	0.00029501197	-6.6039036e-05	0.9999944	-2.0762445e-16	3.7347424e-16	3.2365474e-20	-9.737796e-15
0	0.00029532885	-6.611011e-05	0.99999434	0	0	4.820004	0.00029532888	-6.6110115e-05	0.99999434	-2.0762456e-16	3.7347424e-16	3.2398244e-20	-9.727534e-15
0	0.0002956465	-6.618138e-05	0.99999434	0	0	4.815002	0.00029564652	-6.618138e-05	0.99999434	-2.0762469e-16	3.7347424e-16	3.243107e-20	-9.71727e-15
0	0.00029596483	-6.625276e-05	0.99999434	0	0	4.809998	0.00029596483	-6.625276e-05	0.99999434	-2.0762478e-16	3.7347424e-16	3.2463973e-20	-9.707008e-15
0	0.0002962838	-6.632435e-05	0.99999434	0	0	4.804996	0.00029628383	-6.6324355e-05	0.99999434	-2.076249e-16	3.7347424e-16	3.249693e-20	-9.696744e-15
0	0.00029660348	-6.6396075e-05	0.99999434	0	0	4.7999997	0.00029660348	-6.6396075e-05	0.99999434	-2.0762503e-16	3.7347424e-16	3.2529937e-20	-9.6864824e-15
0	0.00029692388	-6.6468005e-05	0.99999434	0	0	4.7950015	0.00029692388	-6.6468005e-05	0.99999434	-2.0762511e-16	3.7347424e-16	3.2563012e-20	-9.676219e-15
0	0.0002972449	-6.6540044e-05	0.99999434	0	0	4.789999	0.0002972449	-6.6540044e-05	0.99999434	-2.0762526e-16	3.7347424e-16	3.259615e-20	-9.665956e-15
0	0.0002975667	-6.661228e-05	0.99999434	0	0	4.785003	0.0002975667	-6.661227e-05	0.99999434	-2.0762536e-16	3.7347424e-16	3.2629344e-20	-9.655693e-15
0	0.00029788917	-6.6684595e-05	0.99999434	0	0	4.7799993	0.00029788917	-6.6684595e-05	0.99999434	-2.0762548e-16	3.7347424e-16	3.266261e-20	-9.645431e-15
0	0.00029821234	-6.675711e-05	0.9999943	0	0	4.774997	0.00029821234	-6.6757115e-05	0.99999434	-2.076256e-16	3.7347422e-16	3.2695923e-20	-9.635168e-15
0	0.00029853624	-6.6829714e-05	0.9999943	0	0	4.77	0.0002985362	-6.6829714e-05	0.99999434	-2.0762571e-16	3.7347422e-16	3.2729314e-20	-9.624905e-15
0	0.00029886072	-6.690258e-05	0.99999434	0	0	4.7650027	0.00029886072	-6.690258e-05	0.99999434	-2.0762583e-16	3.734742e-16	3.2762756e-20	-9.614642e-15
0	0.000299186	-6.6975525e-05	0.99999434	0	0	4.7599998	0.000299186	-6.697553e-05	0.9999943	-2.0762595e-16	3.7347416e-16	3.2796257e-20	-9.6043795e-15
0	0.00029951197	-6.704868e-05	0.9999943	0	0	4.7550025	0.000299512	-6.704868e-05	0.9999943	-2.0762604e-16	3.7347416e-16	3.2829836e-20	-9.594116e-15
0	0.0002998387	-6.7122026e-05	0.9999943	0	0	4.75	0.00029983872	-6.7122026e-05	0.9999943	-2.0762617e-16	3.7347416e-16	3.2863462e-20	-9.583853e-15
0	0.0003001661	-6.719548e-05	0.9999943	0	0	4.7449975	0.0003001661	-6.719548e-05	0.9999943	-2.0762628e-16	3.7347416e-16	3.2897164e-20	-9.573591e-15
0	0.00030049426	-6.7269124e-05	0.9999943	0	0	4.7400002	0.0003004942	-6.726913e-05	0.9999943	-2.0762638e-16	3.7347414e-16	3.293093e-20	-9.563328e-15
0	0.00030082307	-6.734292e-05	0.9999943	0	0	4.734998	0.0003008231	-6.7342924e-05	0.9999943	-2.0762652e-16	3.7347414e-16	3.2964744e-20	-9.553065e-15
0	0.0003011526	-6.741684e-05	0.9999943	0	0	4.73	0.0003011526	-6.741683e-05	0.9999943	-2.0762664e-16	3.734741e-16	3.2998622e-20	-9.542802e-15
0	0.00030148285	-6.749094e-05	0.9999943	0	0	4.725003	0.00030148285	-6.749094e-05	0.9999943	-2.0762675e-16	3.734741e-16	3.3032585e-20	-9.532539e-15
0	0.00030181388	-6.7565255e-05	0.9999943	0	0	4.7200007	0.0003018139	-6.7565255e-05	0.9999943	-2.0762685e-16	3.734741e-16	3.306659e-20	-9.522276e-15
0	0.00030214558	-6.7639696e-05	0.9999943	0	0	4.714997	0.00030214558	-6.7639696e-05	0.9999943	-2.0762697e-16	3.734741e-16	3.310066e-20	-9.512013e-15
0	0.00030247812	-6.771428e-05	0.9999943	0	0	4.7100015	0.00030247812	-6.771428e-05	0.9999942	-2.0762709e-16	3.734741e-16	3.31348e-20	-9.5017505e-15
0	0.0003028113	-6.778901e-05	0.9999943	0	0	4.7049994	0.00030281133	-6.7789006e-05	0.9999943	-2.0762722e-16	3.734741e-16	3.3169015e-20	-9.491488e-15
0	0.00030314527	-6.7863984e-05	0.9999943	0	0	4.7000003	0.0003031452	-6.7863984e-05	0.9999943	-2.076273e-16	3.734741e-16	3.320329e-20	-9.481224e-15
0	0.00030347987	-6.793907e-05	0.9999943	0	0	4.695004	0.00030347987	-6.793907e-05	0.9999943	-2.0762747e-16	3.734741e-16	3.3237616e-20	-9.470962e-15
0	0.0003038153	-6.801429e-05	0.9999943	0	0	4.690002	0.0003038153	-6.801429e-05	0.9999942	-2.0762757e-16	3.7347414e-16	3.3272022e-20	-9.460699e-15
0	0.00030415144	-6.8089794e-05	0.9999942	0	0	4.684998	0.00030415144	-6.8089794e-05	0.9999942	-2.076277e-16	3.7347406e-16	3.3306492e-20	-9.450436e-15
0	0.00030448835	-6.816538e-05	0.9999942	0	0	4.679996	0.00030448832	-6.8165384e-05	0.9999942	-2.076278e-16	3.7347403e-16	3.3341014e-20	-9.440174e-15
0	0.00030482595	-6.824109e-05	0.9999942	0	0	4.6749997	0.00030482595	-6.824109e-05	0.9999942	-2.076279e-16	3.7347406e-16	3.3375604e-20	-9.42991e-15
0	0.00030516434	-6.831704e-05	0.99999416	0	0	4.6700006	0.00030516434	-6.831703e-05	0.99999416	-2.0762805e-16	3.7347403e-16	3.3410258e-20	-9.419648e-15
0	0.00030550352	-6.839314e-05	0.99999416	0	0	4.6649985	0.0003055035	-6.839314e-05	0.99999416	-2.0762816e-16	3.7347403e-16	3.3444996e-20	-9.409385e-15
0	0.00030584342	-6.846938e-05	0.99999416	0	0	4.660003	0.00030584345	-6.846938e-05	0.99999416	-2.0762826e-16	3.7347406e-16	3.3479786e-20	-9.399122e-15
0	0.00030618405	-6.8545894e-05	0.99999416	0	0	4.6549993	0.00030618405	-6.8545894e-05	0.99999416	-2.076284e-16	3.7347403e-16	3.3514628e-20	-9.388859e-15
0	0.00030652544	-6.86225e-05	0.99999416	0	0	4.649997	0.00030652544	-6.862251e-05	0.99999416	-2.076285e-16	3.7347403e-16	3.354956e-20	-9.378596e-15
0	0.00030686765	-6.869929e-05	0.99999416	0	0	4.645	0.00030686765	-6.8699286e-05	0.99999416	-2.0762862e-16	3.7347403e-16	3.358455e-20	-9.3683335e-15
0	0.0003072106	-6.877622e-05	0.99999416	0	0	4.640002	0.00030721063	-6.877622e-05	0.99999416	-2.0762874e-16	3.7347403e-16	3.3619602e-20	-9.358071e-15
0	0.00030755426	-6.885336e-05	0.99999416	0	0	4.6349998	0.00030755426	-6.885336e-05	0.99999416	-2.0762886e-16	3.7347403e-16	3.3654732e-20	-9.347807e-15
0	0.0003078988	-6.893066e-05	0.99999416	0	0	4.6300015	0.00030789876	-6.893066e-05	0.99999416	-2.0762899e-16	3.7347403e-16	3.3689926e-20	-9.337545e-15
0	0.00030824402	-6.900812e-05	0.99999416	0	0	4.625	0.00030824405	-6.900813e-05	0.99999416	-2.0762911e-16	3.7347403e-16	3.3725178e-20	-9.327282e-15
0	0.00030859013	-6.908581e-05	0.99999416	0	0	4.6199985	0.0003085901	-6.908581e-05	0.99999416	-2.0762924e-16	3.7347403e-16	3.3760504e-20	-9.317019e-15
0	0.00030893687	-6.916362e-05	0.99999416	0	0	4.6150002	0.00030893687	-6.916362e-05	0.99999416	-2.0762936e-16	3.7347403e-16	3.3795902e-20	-9.306755e-15
0	0.00030928437	-6.92416e-05	0.99999404	0	0	4.609998	0.0003092844	-6.924159e-05	0.99999404	-2.0762947e-16	3.7347403e-16	3.383136e-20	-9.296493e-15
0	0.0003096328	-6.9319765e-05	0.99999404	0	0	4.605	0.00030963283	-6.931976e-05	0.99999404	-2.0762959e-16	3.7347403e-16	3.3866897e-20	-9.2862306e-15
0	0.00030998196	-6.9398135e-05	0.99999404	0	0	4.600003	0.00030998193	-6.939813e-05	0.99999404	-2.076297e-16	3.7347403e-16	3.3902495e-20	-9.275968e-15
0	0.0003103319	-6.947666e-05	0.9999939	0	0	4.5950007	0.0003103319	-6.9476664e-05	0.999994	-2.0762982e-16	3.7347395e-16	3.393815e-20	-9.265704e-15
0	0.0003106826	-6.955535e-05	0.999994	0	0	4.589997	0.00031068258	-6.955536e-05	0.999994	-2.0762996e-16	3.7347387e-16	3.397388e-20	-9.255442e-15
0	0.0003110341	-6.9634225e-05	0.9999939	0	0	4.5850015	0.00031103412	-6.9634225e-05	0.9999939	-2.0763006e-16	3.7347387e-16	3.4009686e-20	-9.245179e-15
0	0.00031138648	-6.971332e-05	0.9999939	0	0	4.5799994	0.00031138645	-6.971332e-05	0.9999939	-2.0763018e-16	3.7347395e-16	3.4045555e-20	-9.2349165e-15
0	0.00031173963	-6.979256e-05	0.9999939	0	0	4.5750003	0.0003117396	-6.979256e-05	0.999994	-2.0763033e-16	3.7347395e-16	3.408151e-20	-9.224653e-15
0	0.00031209344	-6.987205e-05	0.9999939	0	0	4.570004	0.00031209344	-6.987204e-05	0.9999939	-2.0763043e-16	3.7347387e-16	3.411751e-20	-9.2143895e-15
0	0.00031244816	-6.9951624e-05	0.9999939	0	0	4.565002	0.00031244816	-6.9951624e-05	0.99999386	-2.0763057e-16	3.7347395e-16	3.4153586e-20	-9.204128e-15
0	0.00031280375	-7.003135e-05	0.9999939	0	0	4.559998	0.0003128038	-7.003135e-05	0.99999386	-2.0763067e-16	3.7347395e-16	3.4189743e-20	-9.193865e-15
0	0.0003131601	-7.011138e-05	0.99999386	0	0	4.554996	0.00031316007	-7.01114e-05	0.99999386	-2.076308e-16	3.7347395e-16	3.422596e-20	-9.1836015e-15
0	0.00031351717	-7.019149e-05	0.99999386	0	0	4.5499997	0.00031351717	-7.019149e-05	0.99999386	-2.0763092e-16	3.7347387e-16	3.4262247e-20	-9.173339e-15
0	0.00031387524	-7.02718e-05	0.99999386	0	0	4.545	0.00031387524	-7.02718e-05	0.99999386	-2.0763103e-16	3.7347387e-16	3.4298614e-20	-9.163075e-15
0	0.000314234	-7.035234e-05	0.99999386	0	0	4.5399985	0.000314234	-7.035235e-05	0.99999386	-2.0763119e-16	3.7347387e-16	3.4335043e-20	-9.1528136e-15
0	0.0003145936	-7.043306e-05	0.99999386	0	0	4.535003	0.00031459364	-7.043306e-05	0.99999386	-2.076313e-16	3.7347387e-16	3.4371545e-20	-9.14255e-15
0	0.00031495397	-7.0513954e-05	0.99999386	0	0	4.5299993	0.000314954	-7.051395e-05	0.99999386	-2.0763143e-16	3.7347387e-16	3.440812e-20	-9.132288e-15
0	0.00031531526	-7.0595e-05	0.99999386	0	0	4.524997	0.00031531526	-7.059501e-05	0.99999386	-2.0763155e-16	3.7347387e-16	3.4444764e-20	-9.122025e-15
0	0.0003156774	-7.067631e-05	0.99999386	0	0	4.52	0.00031567737	-7.067632e-05	0.99999386	-2.0763166e-16	3.7347382e-16	3.4481476e-20	-9.111762e-15
0	0.00031604027	-7.075778e-05	0.99999386	0	0	4.5150013	0.0003160403	-7.075778e-05	0.9999938	-2.076318e-16	3.7347382e-16	3.4518273e-20	-9.101499e-15
0	0.000316404	-7.083936e-05	0.99999386	0	0	4.509999	0.00031640404	-7.083938e-05	0.9999938	-2.0763192e-16	3.734738e-16	3.4555128e-20	-9.091236e-15
0	0.00031676865	-7.092119e-05	0.9999938	0	0	4.5050015	0.0003167687	-7.092119e-05	0.9999938	-2.0763205e-16	3.734738e-16	3.4592057e-20	-9.080973e-15
0	0.00031713405	-7.1003225e-05	0.9999938	0	0	4.5	0.00031713408	-7.100323e-05	0.9999938	-2.0763217e-16	3.734738e-16	3.4629063e-20	-9.070711e-15
0	0.00031750038	-7.1085415e-05	0.9999938	0	0	4.4949985	0.00031750038	-7.108542e-05	0.9999938	-2.0763229e-16	3.734738e-16	3.4666138e-20	-9.060447e-15
0	0.0003178675	-7.116782e-05	0.9999938	0	0	4.490001	0.0003178675	-7.116783e-05	0.9999938	-2.076324e-16	3.734738e-16	3.4703293e-20	-9.0501845e-15
0	0.0003182355	-7.125038e-05	0.9999938	0	0	4.4849987	0.00031823548	-7.125038e-05	0.9999938	-2.0763254e-16	3.734738e-16	3.4740503e-20	-9.039922e-15
0	0.00031860432	-7.133315e-05	0.9999938	0	0	4.48	0.00031860432	-7.1333154e-05	0.9999938	-2.0763267e-16	3.734738e-16	3.47778e-20	-9.029659e-15
0	0.000318974	-7.141616e-05	0.9999938	0	0	4.475003	0.000318974	-7.141616e-05	0.9999938	-2.0763278e-16	3.734738e-16	3.481517e-20	-9.019396e-15
0	0.0003193445	-7.14993e-05	0.9999938	0	0	4.4700007	0.0003193445	-7.14993e-05	0.9999938	-2.0763292e-16	3.734738e-16	3.4852606e-20	-9.009132e-15
0	0.00031971594	-7.158263e-05	0.9999938	0	0	4.464997	0.00031971594	-7.158263e-05	0.9999938	-2.0763303e-16	3.734738e-16	3.4890123e-20	-8.99887e-15
0	0.00032008815	-7.166622e-05	0.9999938	0	0	4.4600024	0.00032008815	-7.166622e-05	0.9999938	-2.0763317e-16	3.734738e-16	3.4927714e-20	-8.988608e-15
0	0.00032046135	-7.1749935e-05	0.9999938	0	0	4.455	0.00032046135	-7.1749935e-05	0.9999938	-2.076333e-16	3.734738e-16	3.496537e-20	-8.978344e-15
0	0.00032083533	-7.183391e-05	0.99999374	0	0	4.4499993	0.0003208353	-7.183391e-05	0.99999374	-2.0763342e-16	3.734738e-16	3.500311e-20	-8.968081e-15
0	0.00032121022	-7.1918024e-05	0.99999374	0	0	4.445004	0.00032121025	-7.1918024e-05	0.99999374	-2.0763353e-16	3.734738e-16	3.5040925e-20	-8.957819e-15
0	0.00032158598	-7.200238e-05	0.99999374	0	0	4.440002	0.00032158598	-7.200238e-05	0.99999374	-2.0763368e-16	3.7347371e-16	3.5078817e-20	-8.947556e-15
0	0.0003219627	-7.208692e-05	0.9999937	0	0	4.434998	0.00032196267	-7.208692e-05	0.99999374	-2.0763381e-16	3.734737e-16	3.5116774e-20	-8.937293e-15
0	0.00032234017	-7.217163e-05	0.9999937	0	0	4.429996	0.00032234017	-7.217163e-05	0.9999937	-2.0763395e-16	3.734737e-16	3.515481e-20	-8.927029e-15
0	0.00032271855	-7.225658e-05	0.9999937	0	0	4.4250007	0.00032271855	-7.225658e-05	0.99999374	-2.0763406e-16	3.734737e-16	3.519292e-20	-8.9167675e-15
0	0.00032309786	-7.2341725e-05	0.9999936	0	0	4.42	0.0003230979	-7.234172e-05	0.9999937	-2.0763418e-16	3.7347366e-16	3.5231115e-20	-8.906505e-15
0	0.00032347807	-7.242697e-05	0.9999937	0	0	4.4149976	0.0003234781	-7.242697e-05	0.9999936	-2.076343e-16	3.7347366e-16	3.5269375e-20	-8.896241e-15
0	0.00032385916	-7.251256e-05	0.99999356	0	0	4.410003	0.00032385916	-7.251256e-05	0.9999937	-2.0763443e-16	3.7347366e-16	3.5307717e-20	-8.885978e-15
0	0.00032424115	-7.259826e-05	0.9999937	0	0	4.4049993	0.00032424115	-7.259827e-05	0.99999356	-2.076346e-16	3.7347366e-16	3.5346132e-20	-8.875716e-15
0	0.00032462398	-7.2684255e-05	0.9999937	0	0	4.399997	0.000324624	-7.2684255e-05	0.99999356	-2.0763471e-16	3.7347366e-16	3.5384628e-20	-8.865454e-15
0	0.00032500774	-7.277037e-05	0.99999356	0	0	4.3950005	0.00032500774	-7.277037e-05	0.9999936	-2.0763484e-16	3.7347366e-16	3.5423195e-20	-8.855191e-15
0	0.00032539247	-7.28567e-05	0.99999344	0	0	4.390001	0.00032539247	-7.28567e-05	0.99999356	-2.0763496e-16	3.7347366e-16	3.5461853e-20	-8.844926e-15
0	0.00032577812	-7.2943236e-05	0.99999344	0	0	4.384999	0.0003257781	-7.2943236e-05	0.99999344	-2.0763508e-16	3.7347363e-16	3.5500576e-20	-8.834665e-15
0	0.00032616462	-7.3030045e-05	0.99999344	0	0	4.3800015	0.00032616468	-7.3030045e-05	0.99999344	-2.0763522e-16	3.7347363e-16	3.5539376e-20	-8.824402e-15
0	0.00032655208	-7.3117e-05	0.99999344	0	0	4.375	0.00032655208	-7.3117e-05	0.99999344	-2.0763536e-16	3.7347363e-16	3.5578253e-20	-8.814139e-15
0	0.00032694044	-7.320413e-05	0.99999344	0	0	4.3699985	0.0003269405	-7.320412e-05	0.99999344	-2.0763549e-16	3.7347363e-16	3.5617218e-20	-8.803874e-15
0	0.00032732976	-7.3291514e-05	0.99999344	0	0	4.365001	0.00032732976	-7.3291514e-05	0.99999344	-2.0763561e-16	3.734736e-16	3.5656254e-20	-8.793612e-15
0	0.00032771996	-7.3379095e-05	0.99999344	0	0	4.359999	0.00032771996	-7.3379095e-05	0.99999344	-2.0763573e-16	3.734736e-16	3.569536e-20	-8.7833505e-15
0	0.00032811105	-7.346684e-05	0.99999344	0	0	4.3549995	0.00032811108	-7.346684e-05	0.99999344	-2.0763586e-16	3.734736e-16	3.5734564e-20	-8.773088e-15
0	0.0003285032	-7.355488e-05	0.99999344	0	0	4.350003	0.0003285032	-7.355488e-05	0.99999344	-2.0763598e-16	3.734736e-16	3.5773833e-20	-8.762824e-15
0	0.00032889622	-7.36431e-05	0.99999344	0	0	4.3450007	0.00032889622	-7.3643096e-05	0.99999344	-2.0763612e-16	3.734736e-16	3.5813192e-20	-8.752559e-15
0	0.0003292901	-7.373152e-05	0.99999344	0	0	4.339997	0.0003292901	-7.373152e-05	0.9999934	-2.0763627e-16	3.734736e-16	3.585262e-20	-8.7423e-15
0	0.00032968508	-7.3820156e-05	0.99999344	0	0	4.3350024	0.00032968508	-7.382015e-05	0.99999344	-2.076364e-16	3.734736e-16	3.589213e-20	-8.732036e-15
0	0.00033008095	-7.3909076e-05	0.9999934	0	0	4.3300004	0.00033008098	-7.3909076e-05	0.9999934	-2.0763651e-16	3.734736e-16	3.5931727e-20	-8.721772e-15
0	0.0003304778	-7.3998126e-05	0.9999934	0	0	4.324999	0.00033047778	-7.399813e-05	0.9999934	-2.0763665e-16	3.734736e-16	3.5971393e-20	-8.711508e-15
0	0.00033087557	-7.408739e-05	0.9999934	0	0	4.320004	0.0003308755	-7.408738e-05	0.9999934	-2.076368e-16	3.734736e-16	3.6011153e-20	-8.701248e-15
0	0.00033127426	-7.417686e-05	0.9999934	0	0	4.315002	0.0003312743	-7.417685e-05	0.9999934	-2.0763692e-16	3.7347358e-16	3.605097e-20	-8.690983e-15
0	0.00033167397	-7.4266565e-05	0.9999934	0	0	4.309998	0.00033167395	-7.426656e-05	0.9999934	-2.0763705e-16	3.734736e-16	3.609089e-20	-8.68072e-15
0	0.00033207456	-7.435654e-05	0.9999934	0	0	4.304996	0.00033207453	-7.435653e-05	0.9999934	-2.0763717e-16	3.7347356e-16	3.613089e-20	-8.670456e-15
0	0.0003324762	-7.4446674e-05	0.9999934	0	0	4.300001	0.00033247616	-7.4446674e-05	0.9999934	-2.0763734e-16	3.7347356e-16	3.617097e-20	-8.660196e-15
0	0.00033287876	-7.4537034e-05	0.9999933	0	0	4.2949996	0.0003328788	-7.4537034e-05	0.9999934	-2.0763745e-16	3.7347356e-16	3.6211127e-20	-8.649933e-15
0	0.00033328237	-7.46276e-05	0.9999933	0	0	4.2899976	0.00033328237	-7.4627605e-05	0.9999933	-2.0763758e-16	3.7347356e-16	3.6251368e-20	-8.639668e-15
0	0.00033368694	-7.471846e-05	0.9999933	0	0	4.285003	0.00033368694	-7.471846e-05	0.9999933	-2.0763773e-16	3.7347345e-16	3.6291687e-20	-8.629406e-15
0	0.00033409247	-7.480945e-05	0.9999933	0	0	4.2799993	0.00033409242	-7.480945e-05	0.9999933	-2.0763785e-16	3.7347342e-16	3.6332086e-20	-8.6191455e-15
0	0.00033449894	-7.4900694e-05	0.9999933	0	0	4.274997	0.00033449897	-7.4900694e-05	0.9999933	-2.0763799e-16	3.7347345e-16	3.6372586e-20	-8.608881e-15
0	0.00033490642	-7.499218e-05	0.9999933	0	0	4.2700005	0.00033490642	-7.499218e-05	0.9999933	-2.0763812e-16	3.7347345e-16	3.641315e-20	-8.598617e-15
0	0.00033531498	-7.508388e-05	0.9999933	0	0	4.265	0.00033531498	-7.508388e-05	0.9999933	-2.0763827e-16	3.7347342e-16	3.6453808e-20	-8.588354e-15
0	0.00033572444	-7.517576e-05	0.9999933	0	0	4.259999	0.00033572447	-7.517577e-05	0.9999933	-2.0763839e-16	3.7347342e-16	3.6494537e-20	-8.578094e-15
0	0.00033613495	-7.526795e-05	0.9999933	0	0	4.2550015	0.00033613492	-7.5267955e-05	0.9999933	-2.0763852e-16	3.7347342e-16	3.653536e-20	-8.567829e-15
0	0.00033654648	-7.536032e-05	0.9999933	0	0	4.25	0.00033654648	-7.536032e-05	0.9999933	-2.0763868e-16	3.7347345e-16	3.6576263e-20	-8.557566e-15
0	0.00033695897	-7.545294e-05	0.9999933	0	0	4.2449985	0.00033695897	-7.545293e-05	0.9999933	-2.076388e-16	3.7347345e-16	3.661726e-20	-8.547303e-15
0	0.00033737253	-7.5545744e-05	0.99999326	0	0	4.240001	0.00033737253	-7.554574e-05	0.99999326	-2.0763894e-16	3.7347342e-16	3.6658334e-20	-8.537042e-15
0	0.0003377871	-7.5638774e-05	0.99999326	0	0	4.235	0.00033778703	-7.5638774e-05	0.99999326	-2.0763906e-16	3.7347342e-16	3.669948e-20	-8.5267774e-15
0	0.00033820255	-7.57321e-05	0.99999326	0	0	4.2299995	0.00033820255	-7.57321e-05	0.99999326	-2.0763921e-16	3.7347342e-16	3.6740723e-20	-8.516514e-15
0	0.0003386192	-7.582563e-05	0.9999932	0	0	4.225003	0.00033861923	-7.582562e-05	0.9999932	-2.0763934e-16	3.7347342e-16	3.6782056e-20	-8.506251e-15
0	0.0003390368	-7.591931e-05	0.99999326	0	0	4.2200007	0.00033903675	-7.591931e-05	0.9999932	-2.0763946e-16	3.7347342e-16	3.682347e-20	-8.495989e-15
0	0.00033945538	-7.6013326e-05	0.9999932	0	0	4.214997	0.00033945538	-7.6013326e-05	0.9999932	-2.076396e-16	3.7347342e-16	3.686496e-20	-8.485727e-15
0	0.0003398751	-7.610751e-05	0.9999932	0	0	4.2100024	0.00033987509	-7.610752e-05	0.9999932	-2.0763975e-16	3.7347337e-16	3.6906556e-20	-8.4754625e-15
0	0.00034029578	-7.620195e-05	0.9999932	0	0	4.2050014	0.00034029578	-7.6201955e-05	0.9999932	-2.076399e-16	3.734734e-16	3.6948222e-20	-8.4652e-15
0	0.00034071758	-7.629664e-05	0.9999932	0	0	4.199999	0.00034071758	-7.629664e-05	0.9999932	-2.0764002e-16	3.734734e-16	3.6989985e-20	-8.454939e-15
0	0.00034114043	-7.639151e-05	0.9999932	0	0	4.1950035	0.0003411404	-7.6391516e-05	0.9999932	-2.0764017e-16	3.7347337e-16	3.703183e-20	-8.4446745e-15
0	0.00034156427	-7.648675e-05	0.9999932	0	0	4.190002	0.0003415643	-7.648674e-05	0.9999932	-2.0764031e-16	3.734734e-16	3.7073757e-20	-8.434411e-15
0	0.0003419892	-7.658211e-05	0.9999932	0	0	4.184998	0.00034198916	-7.65821e-05	0.9999932	-2.0764045e-16	3.7347337e-16	3.711578e-20	-8.424148e-15
0	0.00034241512	-7.66777e-05	0.9999932	0	0	4.1799965	0.00034241512	-7.66777e-05	0.9999931	-2.0764057e-16	3.7347337e-16	3.7157884e-20	-8.413887e-15
0	0.00034284213	-7.677356e-05	0.9999931	0	0	4.1750016	0.00034284213	-7.677357e-05	0.9999931	-2.0764074e-16	3.7347334e-16	3.720008e-20	-8.403623e-15
0	0.00034327022	-7.686969e-05	0.9999931	0	0	4.1699986	0.0003432702	-7.686969e-05	0.999993	-2.0764088e-16	3.7347334e-16	3.724236e-20	-8.3933604e-15
0	0.0003436994	-7.696602e-05	0.999993	0	0	4.1649976	0.00034369942	-7.6966026e-05	0.999993	-2.07641e-16	3.7347334e-16	3.728474e-20	-8.383097e-15
0	0.0003441297	-7.706258e-05	0.99999297	0	0	4.160003	0.0003441297	-7.706259e-05	0.99999297	-2.0764113e-16	3.734733e-16	3.7327204e-20	-8.372835e-15
0	0.000344561	-7.715942e-05	0.99999297	0	0	4.1549993	0.000344561	-7.715942e-05	0.99999297	-2.0764127e-16	3.7347334e-16	3.736974e-20	-8.362572e-15
0	0.0003449933	-7.725645e-05	0.999993	0	0	4.149997	0.00034499337	-7.725646e-05	0.99999297	-2.0764143e-16	3.7347326e-16	3.7412387e-20	-8.352309e-15
0	0.0003454269	-7.73538e-05	0.999993	0	0	4.145001	0.0003454269	-7.73538e-05	0.9999929	-2.0764155e-16	3.734732e-16	3.7455116e-20	-8.342046e-15
0	0.00034586148	-7.745136e-05	0.9999929	0	0	4.14	0.00034586148	-7.745136e-05	0.9999929	-2.0764171e-16	3.734732e-16	3.749793e-20	-8.331783e-15
0	0.00034629714	-7.754917e-05	0.99999297	0	0	4.1349983	0.00034629717	-7.754917e-05	0.99999297	-2.0764183e-16	3.734732e-16	3.7540836e-20	-8.32152e-15
0	0.00034673393	-7.7647186e-05	0.9999929	0	0	4.1300015	0.00034673396	-7.7647186e-05	0.9999929	-2.0764199e-16	3.734732e-16	3.7583836e-20	-8.3112575e-15
0	0.00034717182	-7.7745535e-05	0.9999929	0	0	4.125	0.00034717182	-7.7745535e-05	0.9999929	-2.0764212e-16	3.734732e-16	3.7626934e-20	-8.300995e-15
0	0.0003476108	-7.784408e-05	0.9999929	0	0	4.1199985	0.0003476108	-7.784409e-05	0.9999929	-2.0764225e-16	3.734732e-16	3.767012e-20	-8.290731e-15
0	0.00034805093	-7.794287e-05	0.9999929	0	0	4.1150017	0.00034805093	-7.794286e-05	0.9999929	-2.0764241e-16	3.734732e-16	3.7713397e-20	-8.280468e-15
0	0.00034849206	-7.804191e-05	0.9999929	0	0	4.11	0.0003484921	-7.8041914e-05	0.9999929	-2.0764253e-16	3.734732e-16	3.7756746e-20	-8.270206e-15
0	0.00034893444	-7.8141224e-05	0.9999929	0	0	4.104999	0.0003489344	-7.8141224e-05	0.9999929	-2.0764269e-16	3.7347318e-16	3.7800206e-20	-8.2599434e-15
0	0.0003493779	-7.824082e-05	0.9999929	0	0	4.1000023	0.00034937786	-7.8240824e-05	0.9999929	-2.0764283e-16	3.734732e-16	3.7843752e-20	-8.249681e-15
0	0.0003498225	-7.834057e-05	0.99999285	0	0	4.0950007	0.00034982254	-7.834057e-05	0.9999929	-2.0764298e-16	3.734732e-16	3.78874e-20	-8.239416e-15
0	0.00035026818	-7.844067e-05	0.9999929	0	0	4.089997	0.00035026818	-7.844067e-05	0.99999285	-2.0764311e-16	3.7347316e-16	3.793113e-20	-8.229155e-15
0	0.0003507151	-7.854097e-05	0.99999285	0	0	4.085003	0.00035071507	-7.854097e-05	0.99999285	-2.0764327e-16	3.7347316e-16	3.7974954e-20	-8.218892e-15
0	0.00035116303	-7.864155e-05	0.99999285	0	0	4.0800014	0.00035116303	-7.864155e-05	0.99999285	-2.076434e-16	3.7347316e-16	3.8018872e-20	-8.208629e-15
0	0.0003516122	-7.874236e-05	0.99999285	0	0	4.0749984	0.00035161222	-7.874238e-05	0.99999285	-2.0764355e-16	3.7347316e-16	3.8062894e-20	-8.198365e-15
0	0.00035206243	-7.884347e-05	0.99999285	0	0	4.0700035	0.00035206243	-7.884347e-05	0.99999285	-2.076437e-16	3.7347316e-16	3.8106993e-20	-8.188103e-15
0	0.00035251386	-7.894485e-05	0.99999285	0	0	4.065002	0.00035251386	-7.894485e-05	0.99999285	-2.0764385e-16	3.7347316e-16	3.8151198e-20	-8.1778405e-15
0	0.00035296654	-7.904648e-05	0.99999285	0	0	4.059998	0.00035296654	-7.904647e-05	0.9999928	-2.0764397e-16	3.7347316e-16	3.8195495e-20	-8.167578e-15
0	0.0003534203	-7.9148354e-05	0.99999285	0	0	4.0549965	0.00035342027	-7.914836e-05	0.99999285	-2.076441e-16	3.7347316e-16	3.823989e-20	-8.1573135e-15
0	0.00035387516	-7.92504e-05	0.9999928	0	0	4.0500026	0.00035387516	-7.92504e-05	0.99999285	-2.0764428e-16	3.7347316e-16	3.8284374e-20	-8.147052e-15
0	0.0003543313	-7.935283e-05	0.9999928	0	0	4.0449986	0.00035433134	-7.935283e-05	0.9999928	-2.0764441e-16	3.734731e-16	3.8328952e-20	-8.136788e-15
0	0.00035478856	-7.9455516e-05	0.9999928	0	0	4.039997	0.0003547885	-7.945551e-05	0.9999928	-2.0764456e-16	3.7347313e-16	3.8373632e-20	-8.126526e-15
0	0.00035524706	-7.955848e-05	0.9999928	0	0	4.035003	0.00035524706	-7.955848e-05	0.9999928	-2.0764471e-16	3.734731e-16	3.8418407e-20	-8.116261e-15
0	0.0003557067	-7.9661666e-05	0.9999927	0	0	4.0299993	0.0003557067	-7.9661666e-05	0.9999927	-2.0764485e-16	3.734731e-16	3.846328e-20	-8.106001e-15
0	0.00035616755	-7.97651e-05	0.9999927	0	0	4.0249977	0.00035616755	-7.9765094e-05	0.9999927	-2.07645e-16	3.7347303e-16	3.8508243e-20	-8.0957385e-15
0	0.00035662955	-7.986878e-05	0.99999267	0	0	4.020001	0.00035662958	-7.986877e-05	0.9999926	-2.0764515e-16	3.73473e-16	3.85533e-20	-8.085475e-15
0	0.00035709288	-7.9972844e-05	0.9999927	0	0	4.015	0.00035709288	-7.9972844e-05	0.9999926	-2.076453e-16	3.73473e-16	3.8598474e-20	-8.07521e-15
0	0.00035755723	-8.007708e-05	0.9999926	0	0	4.0099983	0.00035755726	-8.007708e-05	0.99999267	-2.0764546e-16	3.73473e-16	3.8643726e-20	-8.06495e-15
0	0.0003580229	-8.018165e-05	0.99999267	0	0	4.0050015	0.0003580229	-8.018165e-05	0.9999927	-2.076456e-16	3.73473e-16	3.8689092e-20	-8.054686e-15
0	0.00035848975	-8.028651e-05	0.9999926	0	0	4	0.00035848978	-8.028651e-05	0.99999255	-2.0764573e-16	3.73473e-16	3.8734545e-20	-8.0444235e-15